<?xml version="1.0" encoding="UTF-8"?>

<!-- generated on 2025-05-10 23:12:12 by Eclipse SUMO sumo Version 1.22.0
<sumoConfiguration xmlns:xsi="http://www.w3.org/2001/XMLSchema-instance" xsi:noNamespaceSchemaLocation="http://sumo.dlr.de/xsd/sumoConfiguration.xsd">

    <input>
        <net-file value="net.net.xml"/>
        <route-files value="simple_routes.xml"/>
    </input>

    <output>
        <tripinfo-output value="tripinfo.xml"/>
        <vehroute-output value="vehroutes.xml"/>
        <vehroute-output.exit-times value="true"/>
        <vehroute-output.stop-edges value="true"/>
        <stop-output value="stopinfo.xml"/>
    </output>

    <time>
        <begin value="0"/>
        <end value="1000"/>
    </time>

    <processing>
        <ignore-route-errors value="true"/>
    </processing>

    <report>
        <no-step-log value="true"/>
    </report>

    <traci_server>
        <remote-port value="55873"/>
    </traci_server>

</sumoConfiguration>
-->

<tripinfos xmlns:xsi="http://www.w3.org/2001/XMLSchema-instance" xsi:noNamespaceSchemaLocation="http://sumo.dlr.de/xsd/tripinfo_file.xsd">
    <tripinfo id="vehicle_3" depart="30.00" departLane="gneE11_0" departPos="5.10" departSpeed="0.00" departDelay="0.00" arrival="47.00" arrivalLane="gneE1_0" arrivalPos="24.31" arrivalSpeed="14.58" duration="17.00" routeLength="185.12" waitingTime="0.00" waitingCount="0" stopTime="0.00" timeLoss="3.67" rerouteNo="0" devices="vehroute_vehicle_3 tripinfo_vehicle_3" vType="car" speedFactor="1.08" vaporized=""/>
    <tripinfo id="vehicle_2" depart="20.00" departLane="gneE11_0" departPos="5.10" departSpeed="0.00" departDelay="0.00" arrival="73.00" arrivalLane="115872656#13.8_0" arrivalPos="403.86" arrivalSpeed="14.91" duration="53.00" routeLength="562.32" waitingTime="5.00" waitingCount="1" stopTime="0.00" timeLoss="15.51" rerouteNo="0" devices="vehroute_vehicle_2 tripinfo_vehicle_2" vType="car" speedFactor="1.01" vaporized=""/>
    <tripinfo id="vehicle_5" depart="50.00" departLane="-638636924#1.9_0" departPos="5.10" departSpeed="0.00" departDelay="0.00" arrival="85.00" arrivalLane="115872656#11_1" arrivalPos="2.90" arrivalSpeed="9.39" duration="35.00" routeLength="81.59" waitingTime="19.00" waitingCount="1" stopTime="0.00" timeLoss="27.73" rerouteNo="0" devices="vehroute_vehicle_5 tripinfo_vehicle_5" vType="car" speedFactor="0.83" vaporized=""/>
    <tripinfo id="vehicle_4" depart="40.00" departLane="-638636924#1.9_0" departPos="5.10" departSpeed="0.00" departDelay="0.00" arrival="86.00" arrivalLane="-660891910#1_0" arrivalPos="3.88" arrivalSpeed="5.16" duration="46.00" routeLength="85.41" waitingTime="30.00" waitingCount="1" stopTime="0.00" timeLoss="38.98" rerouteNo="0" devices="vehroute_vehicle_4 tripinfo_vehicle_4" vType="car" speedFactor="1.03" vaporized=""/>
    <tripinfo id="vehicle_6" depart="60.00" departLane="-638636924#1.9_0" departPos="5.10" departSpeed="0.00" departDelay="0.00" arrival="88.00" arrivalLane="834845345#6_0" arrivalPos="25.07" arrivalSpeed="11.35" duration="28.00" routeLength="88.43" waitingTime="12.00" waitingCount="1" stopTime="0.00" timeLoss="21.25" rerouteNo="0" devices="vehroute_vehicle_6 tripinfo_vehicle_6" vType="car" speedFactor="1.05" vaporized=""/>
    <tripinfo id="vehicle_7" depart="70.00" departLane="115872656#10.14_0" departPos="5.10" departSpeed="0.00" departDelay="0.00" arrival="105.00" arrivalLane="115872656#11_0" arrivalPos="2.90" arrivalSpeed="12.90" duration="35.00" routeLength="97.53" waitingTime="18.00" waitingCount="1" stopTime="0.00" timeLoss="27.80" rerouteNo="0" devices="vehroute_vehicle_7 tripinfo_vehicle_7" vType="car" speedFactor="0.89" vaporized=""/>
    <tripinfo id="vehicle_9" depart="90.00" departLane="834845345#8.108_0" departPos="5.10" departSpeed="0.00" departDelay="0.00" arrival="105.00" arrivalLane="834845345#9_0" arrivalPos="6.82" arrivalSpeed="10.69" duration="15.00" routeLength="56.42" waitingTime="3.00" waitingCount="1" stopTime="0.00" timeLoss="11.05" rerouteNo="0" devices="vehroute_vehicle_9 tripinfo_vehicle_9" vType="car" speedFactor="0.86" vaporized=""/>
    <tripinfo id="vehicle_10" depart="100.00" departLane="834845345#8.108_0" departPos="5.10" departSpeed="0.00" departDelay="0.00" arrival="120.00" arrivalLane="gneE19_0" arrivalPos="6.41" arrivalSpeed="10.76" duration="20.00" routeLength="58.50" waitingTime="7.00" waitingCount="1" stopTime="0.00" timeLoss="15.99" rerouteNo="0" devices="vehroute_vehicle_10 tripinfo_vehicle_10" vType="car" speedFactor="1.09" vaporized=""/>
    <tripinfo id="vehicle_8" depart="80.00" departLane="115872656#10.14_0" departPos="5.10" departSpeed="0.00" departDelay="0.00" arrival="121.00" arrivalLane="638636924#1_0" arrivalPos="3.49" arrivalSpeed="3.95" duration="41.00" routeLength="99.12" waitingTime="24.00" waitingCount="1" stopTime="0.00" timeLoss="32.22" rerouteNo="0" devices="vehroute_vehicle_8 tripinfo_vehicle_8" vType="car" speedFactor="0.94" vaporized=""/>
    <tripinfo id="vehicle_11" depart="110.00" departLane="gneE18_0" departPos="5.10" departSpeed="0.00" departDelay="0.00" arrival="136.00" arrivalLane="834845345#9_1" arrivalPos="6.82" arrivalSpeed="10.66" duration="26.00" routeLength="58.54" waitingTime="14.00" waitingCount="1" stopTime="0.00" timeLoss="21.12" rerouteNo="0" devices="vehroute_vehicle_11 tripinfo_vehicle_11" vType="car" speedFactor="1.03" vaporized=""/>
    <tripinfo id="vehicle_13" depart="130.00" departLane="gneE18_0" departPos="5.10" departSpeed="0.00" departDelay="0.00" arrival="138.00" arrivalLane="gneE26_0" arrivalPos="6.25" arrivalSpeed="13.85" duration="8.00" routeLength="60.14" waitingTime="0.00" waitingCount="0" stopTime="0.00" timeLoss="3.16" rerouteNo="0" devices="vehroute_vehicle_13 tripinfo_vehicle_13" vType="car" speedFactor="1.12" vaporized=""/>
    <tripinfo id="vehicle_12" depart="120.00" departLane="gneE18_0" departPos="5.10" departSpeed="0.00" departDelay="0.00" arrival="139.00" arrivalLane="gneE23_0" arrivalPos="62.32" arrivalSpeed="14.37" duration="19.00" routeLength="96.50" waitingTime="4.00" waitingCount="1" stopTime="0.00" timeLoss="11.04" rerouteNo="0" devices="vehroute_vehicle_12 tripinfo_vehicle_12" vType="car" speedFactor="1.05" vaporized=""/>
    <tripinfo id="vehicle_17" depart="170.00" departLane="gneE11_0" departPos="5.10" departSpeed="0.00" departDelay="0.00" arrival="189.00" arrivalLane="gneE1_0" arrivalPos="24.31" arrivalSpeed="12.47" duration="19.00" routeLength="185.12" waitingTime="0.00" waitingCount="0" stopTime="0.00" timeLoss="5.01" rerouteNo="0" devices="vehroute_vehicle_17 tripinfo_vehicle_17" vType="car" speedFactor="0.94" vaporized=""/>
</tripinfos>
