<?xml version="1.0" encoding="UTF-8"?>

<!-- generated on 2025-05-06 21:17:26 by Eclipse SUMO sumo Version 1.22.0
<sumoConfiguration xmlns:xsi="http://www.w3.org/2001/XMLSchema-instance" xsi:noNamespaceSchemaLocation="http://sumo.dlr.de/xsd/sumoConfiguration.xsd">

    <input>
        <net-file value="net.net.xml"/>
        <route-files value="rou.route.xml"/>
    </input>

    <output>
        <tripinfo-output value="tripinfo.xml"/>
        <vehroute-output value="vehroutes.xml"/>
        <vehroute-output.exit-times value="true"/>
        <vehroute-output.stop-edges value="true"/>
        <stop-output value="stopinfo.xml"/>
    </output>

    <time>
        <begin value="0"/>
        <end value="200"/>
    </time>

</sumoConfiguration>
-->

<routes xmlns:xsi="http://www.w3.org/2001/XMLSchema-instance" xsi:noNamespaceSchemaLocation="http://sumo.dlr.de/xsd/routes_file.xsd">
    <vehicle id="0_0" type="car" depart="0.00" departSpeed="23.691" speedFactor="1.0600" arrival="28.00">
        <route edges="834845345#1 834845345#1-AddedOffRampEdge 8884863 -8868160#0" exitTimes="14.00 17.00 19.00 28.00"/>
    </vehicle>

    <vehicle id="0_1" type="car" depart="2.00" departSpeed="20.971" speedFactor="0.9383" arrival="33.00">
        <route edges="834845345#1 834845345#1-AddedOffRampEdge 8884863 -8868160#0" exitTimes="18.00 21.00 23.00 33.00"/>
    </vehicle>

    <vehicle id="0_2" type="car" depart="4.00" departSpeed="5.6178" speedFactor="1.0104" arrival="48.00">
        <route edges="660891910#1 660891910#1.19 638636924#1 638636924#1.8" exitTimes="9.00 30.00 38.00 48.00"/>
    </vehicle>

    <vehicle id="0_12" type="car" depart="20.00" departSpeed="23.4027" speedFactor="1.0471" arrival="48.00">
        <route edges="834845345#1 834845345#1-AddedOffRampEdge 8884863 -8868160#0" exitTimes="34.00 37.00 39.00 48.00"/>
    </vehicle>

    <vehicle id="0_14" type="car" depart="23.00" departSpeed="22.1533" speedFactor="0.9912" arrival="52.00">
        <route edges="834845345#1 834845345#1-AddedOffRampEdge 8884863 -8868160#0" exitTimes="38.00 41.00 43.00 52.00"/>
    </vehicle>

    <vehicle id="0_7" type="car" depart="12.00" departSpeed="24.6131" speedFactor="0.8860" arrival="54.00">
        <route edges="8868160#0.7 Airport_to_US69 834845345#4-AddedOnRampEdge 834845345#4 834845345#5.74 gneE2 638636924#1.8" exitTimes="22.00 24.00 31.00 35.00 37.00 44.00 54.00"/>
    </vehicle>

    <vehicle id="0_15" type="car" depart="25.00" departSpeed="20.714" speedFactor="0.9268" arrival="56.00">
        <route edges="834845345#1 834845345#1-AddedOffRampEdge 8884863 -8868160#0" exitTimes="41.00 44.00 47.00 56.00"/>
    </vehicle>

    <vehicle id="0_16" type="car" depart="26.00" departSpeed="18.2288" speedFactor="0.8784" arrival="59.00">
        <route edges="834845345#1 834845345#1-AddedOffRampEdge 8884863 -8868160#0" exitTimes="43.00 46.00 49.00 59.00"/>
    </vehicle>

    <vehicle id="0_18" type="car" depart="30.00" departSpeed="20.9241" speedFactor="0.9362" arrival="61.00">
        <route edges="834845345#1 834845345#1-AddedOffRampEdge 8884863 -8868160#0" exitTimes="46.00 49.00 52.00 61.00"/>
    </vehicle>

    <vehicle id="0_5" type="car" depart="9.00" departSpeed="4.6204" speedFactor="0.8310" arrival="66.00">
        <route edges="660891910#1 gneE4 115872656#11.5 gneE11 115872656#13.8" exitTimes="15.00 21.00 34.00 42.00 66.00"/>
    </vehicle>

    <vehicle id="0_21" type="car" depart="35.00" departSpeed="22.578" speedFactor="1.0102" arrival="70.00">
        <route edges="115872656#4 115872656#5 115872656#6 gneE22 gneE22.27 gneE26 8867312#6.18" exitTimes="38.00 41.00 43.00 46.00 50.00 55.00 70.00"/>
    </vehicle>

    <vehicle id="0_28" type="car" depart="46.00" departSpeed="25.2274" speedFactor="1.1318" arrival="75.00">
        <route edges="834845345#1 834845345#1-AddedOffRampEdge 8884863 -8868160#0" exitTimes="62.00 64.00 67.00 75.00"/>
    </vehicle>

    <vehicle id="0_33" type="car" depart="54.00" departSpeed="24.0104" speedFactor="1.1718" arrival="76.00">
        <route edges="115872656#4 115872656#5 115872656#6 gneE10 -8867312#4.11" exitTimes="57.00 59.00 61.00 68.00 76.00"/>
    </vehicle>

    <vehicle id="0_3" type="car" depart="5.00" departSpeed="24.1983" speedFactor="1.0827" arrival="81.00">
        <route edges="834845345#1 834845345#1-AddedOffRampEdge 834845345#2 834845345#3.0 834845345#4-AddedOnRampEdge 834845345#4 834845345#5.74 834845345#5.74.43 -660891910#1 -660891910#1.13" exitTimes="19.00 21.00 22.00 24.00 30.00 33.00 35.00 65.00 70.00 81.00"/>
    </vehicle>

    <vehicle id="0_38" type="car" depart="62.00" departSpeed="24.6364" speedFactor="1.1023" arrival="85.00">
        <route edges="115872656#4 115872656#5 115872656#6 gneE10 -8867312#4.11" exitTimes="65.00 67.00 69.00 76.00 85.00"/>
    </vehicle>

    <vehicle id="0_4" type="car" depart="7.00" departSpeed="23.0272" speedFactor="1.0303" arrival="87.00">
        <route edges="834845345#1 834845345#1-AddedOffRampEdge 834845345#2 834845345#3.0 834845345#4-AddedOnRampEdge 834845345#4 834845345#5.74 834845345#5.74.43 834845345#6 834845345#6.23 834845345#7 834845345#8 834845345#8.20 gneE8 8867312#6.18" exitTimes="22.00 24.00 25.00 27.00 33.00 37.00 38.00 50.00 57.00 61.00 65.00 67.00 71.00 74.00 87.00"/>
    </vehicle>

    <vehicle id="0_20" type="car" depart="33.00" departSpeed="22.7545" speedFactor="1.0181" arrival="90.00">
        <route edges="115872656#4 115872656#5 115872656#6 gneE22 gneE22.27 gneE23 115872656#8 115872656#9 115872656#10 115872656#10.14 638636924#1 638636924#1.8" exitTimes="36.00 39.00 41.00 44.00 53.00 61.00 66.00 70.00 72.00 76.00 80.00 90.00"/>
    </vehicle>

    <vehicle id="0_9" type="car" depart="15.00" departSpeed="23.8047" speedFactor="0.8569" arrival="95.00">
        <route edges="8868160#0.7 Airport_to_US69 834845345#4-AddedOnRampEdge 834845345#4 834845345#5.74 834845345#5.74.43 834845345#6 834845345#6.23 834845345#7 834845345#8 834845345#8.20 gneE8 8867312#6.18" exitTimes="25.00 28.00 35.00 39.00 41.00 53.00 58.00 62.00 68.00 70.00 74.00 78.00 95.00"/>
    </vehicle>

    <vehicle id="0_44" type="car" depart="72.00" departSpeed="23.32" speedFactor="1.0434" arrival="101.00">
        <route edges="834845345#1 834845345#1-AddedOffRampEdge 8884863 -8868160#0" exitTimes="87.00 90.00 93.00 101.00"/>
    </vehicle>

    <vehicle id="0_46" type="car" depart="75.00" departSpeed="22.2919" speedFactor="0.9974" arrival="105.00">
        <route edges="834845345#1 834845345#1-AddedOffRampEdge 8884863 -8868160#0" exitTimes="90.00 93.00 96.00 105.00"/>
    </vehicle>

    <vehicle id="0_53" type="car" depart="86.00" departSpeed="24.4911" speedFactor="1.0958" arrival="115.00">
        <route edges="834845345#1 834845345#1-AddedOffRampEdge 8884863 -8868160#0" exitTimes="101.00 104.00 107.00 115.00"/>
    </vehicle>

    <vehicle id="0_10" type="car" depart="17.00" departSpeed="24.3771" speedFactor="1.0907" arrival="117.00">
        <route edges="834845345#1 834845345#1-AddedOffRampEdge 834845345#2 834845345#3.0 834845345#4-AddedOnRampEdge 834845345#4 834845345#5.74 834845345#5.74.43 834845345#6 834845345#6.23 834845345#7 834845345#8 834845345#8.20 834845345#8.108 834845345#9 834845345#9.4 834845345#12 gneE14" exitTimes="31.00 33.00 34.00 36.00 41.00 45.00 46.00 53.00 58.00 62.00 66.00 68.00 72.00 100.00 105.00 111.00 113.00 117.00"/>
    </vehicle>

    <vehicle id="0_24" type="car" depart="39.00" departSpeed="4.5909" speedFactor="0.8257" arrival="117.00">
        <route edges="660891910#1 gneE4 115872656#11.5 gneE11 115872656#13.8" exitTimes="45.00 52.00 65.00 90.00 117.00"/>
    </vehicle>

    <vehicle id="0_6" type="car" depart="10.00" departSpeed="23.3736" speedFactor="1.0458" arrival="118.00">
        <route edges="834845345#1 834845345#1-AddedOffRampEdge 834845345#2 834845345#3.0 834845345#4-AddedOnRampEdge 834845345#4 834845345#5.74 834845345#5.74.43 834845345#6 834845345#6.23 834845345#7 834845345#8 834845345#8.20 834845345#8.108 834845345#9 834845345#9.4 834845345#12 gneE14" exitTimes="24.00 27.00 28.00 30.00 36.00 40.00 42.00 50.00 56.00 60.00 64.00 66.00 70.00 100.00 105.00 112.00 114.00 118.00"/>
    </vehicle>

    <vehicle id="0_17" type="car" depart="28.00" departSpeed="26.1521" speedFactor="0.9414" arrival="120.00">
        <route edges="8868160#0.7 Airport_to_US69 834845345#4-AddedOnRampEdge 834845345#4 834845345#5.74 834845345#5.74.43 834845345#6 834845345#6.23 834845345#7 834845345#8 834845345#8.20 834845345#8.108 834845345#9 834845345#9.4 834845345#12 gneE14" exitTimes="37.00 39.00 46.00 49.00 51.00 57.00 60.00 64.00 68.00 71.00 75.00 103.00 107.00 113.00 115.00 120.00"/>
    </vehicle>

    <vehicle id="0_31" type="car" depart="51.00" departSpeed="6.4185" speedFactor="1.1544" arrival="122.00">
        <route edges="660891910#1 gneE4 115872656#11.5 gneE11 gneE1 -8868160#0" exitTimes="55.00 61.00 72.00 90.00 112.00 122.00"/>
    </vehicle>

    <vehicle id="0_57" type="car" depart="93.00" departSpeed="21.2628" speedFactor="1.1425" arrival="124.00">
        <route edges="834845345#1 834845345#1-AddedOffRampEdge 8884863 -8868160#0" exitTimes="109.00 112.00 114.00 124.00"/>
    </vehicle>

    <vehicle id="0_63" type="car" depart="103.00" departSpeed="22.0595" speedFactor="0.9870" arrival="132.00">
        <route edges="834845345#1 834845345#1-AddedOffRampEdge 8884863 -8868160#0" exitTimes="118.00 121.00 123.00 132.00"/>
    </vehicle>

    <vehicle id="0_36" type="car" depart="59.00" departSpeed="21.751" speedFactor="0.9732" arrival="133.00">
        <route edges="834845345#1 834845345#1-AddedOffRampEdge 834845345#2 834845345#3.0 834845345#4-AddedOnRampEdge 834845345#4 834845345#5.74 834845345#5.74.43 834845345#6 gneE29" exitTimes="74.00 96.00 100.00 103.00 109.00 114.00 116.00 121.00 124.00 133.00"/>
    </vehicle>

    <vehicle id="0_66" type="car" depart="108.00" departSpeed="20.267" speedFactor="0.9068" arrival="140.00">
        <route edges="834845345#1 834845345#1-AddedOffRampEdge 8884863 -8868160#0" exitTimes="125.00 127.00 130.00 140.00"/>
    </vehicle>

    <vehicle id="0_67" type="car" depart="109.00" departSpeed="18.365" speedFactor="0.9146" arrival="142.00">
        <route edges="834845345#1 834845345#1-AddedOffRampEdge 8884863 -8868160#0" exitTimes="126.00 129.00 132.00 142.00"/>
    </vehicle>

    <vehicle id="0_11" type="car" depart="18.00" departSpeed="22.9378" speedFactor="1.0263" arrival="144.00">
        <route edges="115872656#4 115872656#5 115872656#6 gneE22 gneE22.27 gneE23 115872656#8 115872656#9 115872656#10 115872656#10.14 115872656#11 115872656#11.5 gneE11 115872656#13.8" exitTimes="21.00 24.00 26.00 29.00 50.00 59.00 64.00 68.00 70.00 103.00 107.00 118.00 125.00 144.00"/>
    </vehicle>

    <vehicle id="0_62" type="car" depart="101.00" departSpeed="5.6478" speedFactor="1.0158" arrival="146.00">
        <route edges="660891910#1 gneE4 115872656#11.5 gneE11 gneE1 -8868160#0" exitTimes="106.00 112.00 124.00 131.00 136.00 146.00"/>
    </vehicle>

    <vehicle id="0_8" type="car" depart="13.00" departSpeed="20.9621" speedFactor="0.9379" arrival="147.00">
        <route edges="115872656#4 115872656#5 115872656#6 gneE22 gneE22.27 gneE23 115872656#8 115872656#9 115872656#10 115872656#10.14 115872656#11 115872656#11.5 gneE11 115872656#13.8" exitTimes="17.00 19.00 21.00 25.00 50.00 59.00 64.00 69.00 71.00 103.00 108.00 118.00 126.00 147.00"/>
    </vehicle>

    <vehicle id="0_75" type="car" depart="122.00" departSpeed="22.0125" speedFactor="0.9849" arrival="151.00">
        <route edges="834845345#1 834845345#1-AddedOffRampEdge 8884863 -8868160#0" exitTimes="137.00 140.00 142.00 151.00"/>
    </vehicle>

    <vehicle id="0_23" type="car" depart="38.00" departSpeed="19.8826" speedFactor="0.8896" arrival="153.00">
        <route edges="115872656#4 115872656#5 115872656#6 gneE22 gneE22.27 gneE23 115872656#8 115872656#9 115872656#10 115872656#10.14 115872656#11 115872656#11.5 gneE11 115872656#13.8" exitTimes="42.00 45.00 47.00 50.00 56.00 64.00 69.00 74.00 76.00 106.00 110.00 121.00 130.00 153.00"/>
    </vehicle>

    <vehicle id="0_77" type="car" depart="125.00" departSpeed="21.2398" speedFactor="0.9819" arrival="155.00">
        <route edges="834845345#1 834845345#1-AddedOffRampEdge 8884863 -8868160#0" exitTimes="140.00 143.00 145.00 155.00"/>
    </vehicle>

    <vehicle id="0_60" type="car" depart="98.00" departSpeed="24.1939" speedFactor="1.0825" arrival="162.00">
        <route edges="834845345#1 834845345#1-AddedOffRampEdge 834845345#2 834845345#3.0 834845345#4-AddedOnRampEdge 834845345#4 834845345#5.74 834845345#5.74.43 -660891910#1 -660891910#1.13" exitTimes="112.00 114.00 115.00 117.00 123.00 126.00 128.00 145.00 150.00 162.00"/>
    </vehicle>

    <vehicle id="0_87" type="car" depart="142.00" departSpeed="23.3066" speedFactor="1.0428" arrival="167.00">
        <route edges="115872656#4 115872656#5 115872656#6 gneE10 -8867312#4.11" exitTimes="145.00 148.00 150.00 157.00 167.00"/>
    </vehicle>

    <vehicle id="0_84" type="car" depart="137.00" departSpeed="28.9797" speedFactor="1.1478" arrival="168.00">
        <route edges="8868160#0.7 gneE0.12 115872656#13.8" exitTimes="145.00 147.00 168.00"/>
    </vehicle>

    <vehicle id="0_88" type="car" depart="143.00" departSpeed="20.9492" speedFactor="1.0071" arrival="169.00">
        <route edges="115872656#4 115872656#5 115872656#6 gneE10 -8867312#4.11" exitTimes="146.00 149.00 151.00 159.00 169.00"/>
    </vehicle>

    <vehicle id="0_13" type="car" depart="22.00" departSpeed="25.0968" speedFactor="1.1229" arrival="173.00">
        <route edges="834845345#1 834845345#1-AddedOffRampEdge 834845345#2 834845345#3.0 834845345#4-AddedOnRampEdge 834845345#4 834845345#5.74 834845345#5.74.43 834845345#6 834845345#6.23 834845345#7 834845345#8 834845345#8.20 834845345#8.108 834845345#9 834845345#9.4 834845345#12 gneE14" exitTimes="36.00 38.00 90.00 95.00 102.00 105.00 107.00 110.00 113.00 116.00 120.00 122.00 125.00 156.00 161.00 168.00 169.00 173.00"/>
    </vehicle>

    <vehicle id="0_19" type="car" depart="31.00" departSpeed="19.1323" speedFactor="1.1582" arrival="173.00">
        <route edges="834845345#1 834845345#1-AddedOffRampEdge 834845345#2 834845345#3.0 834845345#4-AddedOnRampEdge 834845345#4 834845345#5.74 834845345#5.74.43 834845345#6 834845345#6.23 834845345#7 834845345#8 834845345#8.20 834845345#8.108 834845345#9 834845345#9.4 834845345#12 gneE14" exitTimes="45.00 48.00 90.00 95.00 102.00 105.00 107.00 111.00 113.00 116.00 119.00 121.00 124.00 156.00 161.00 167.00 169.00 173.00"/>
    </vehicle>

    <vehicle id="0_25" type="car" depart="41.00" departSpeed="19.5026" speedFactor="0.8726" arrival="176.00">
        <route edges="834845345#1 834845345#1-AddedOffRampEdge 834845345#2 834845345#3.0 834845345#4-AddedOnRampEdge 834845345#4 834845345#5.74 834845345#5.74.43 834845345#6 834845345#6.23 834845345#7 834845345#8 834845345#8.20 834845345#8.108 834845345#9 834845345#9.4 834845345#12 gneE14" exitTimes="58.00 61.00 93.00 97.00 105.00 109.00 111.00 116.00 119.00 123.00 128.00 130.00 134.00 159.00 163.00 169.00 171.00 176.00"/>
    </vehicle>

    <vehicle id="0_22" type="car" depart="36.00" departSpeed="21.7913" speedFactor="0.9750" arrival="177.00">
        <route edges="834845345#1 834845345#1-AddedOffRampEdge 834845345#2 834845345#3.0 834845345#4-AddedOnRampEdge 834845345#4 834845345#5.74 834845345#5.74.43 834845345#6 834845345#6.23 834845345#7 834845345#8 834845345#8.20 834845345#8.108 834845345#9 834845345#9.4 834845345#12 gneE14" exitTimes="51.00 54.00 93.00 97.00 104.00 108.00 110.00 114.00 117.00 120.00 125.00 127.00 131.00 159.00 163.00 169.00 172.00 177.00"/>
    </vehicle>

    <vehicle id="0_26" type="car" depart="43.00" departSpeed="20.4994" speedFactor="0.9172" arrival="178.00">
        <route edges="834845345#1 834845345#1-AddedOffRampEdge 834845345#2 834845345#3.0 834845345#4-AddedOnRampEdge 834845345#4 834845345#5.74 834845345#5.74.43 834845345#6 834845345#6.23 834845345#7 834845345#8 834845345#8.20 834845345#8.108 834845345#9 834845345#9.4 834845345#12 gneE14" exitTimes="60.00 63.00 96.00 99.00 106.00 110.00 113.00 118.00 120.00 124.00 129.00 131.00 136.00 161.00 165.00 171.00 173.00 178.00"/>
    </vehicle>

    <vehicle id="0_27" type="car" depart="44.00" departSpeed="18.8166" speedFactor="0.9488" arrival="178.00">
        <route edges="834845345#1 834845345#1-AddedOffRampEdge 834845345#2 834845345#3.0 834845345#4-AddedOnRampEdge 834845345#4 834845345#5.74 834845345#5.74.43 834845345#6 834845345#6.23 834845345#7 834845345#8 834845345#8.20 834845345#8.108 834845345#9 834845345#9.4 834845345#12 gneE14" exitTimes="60.00 64.00 96.00 99.00 106.00 110.00 113.00 118.00 120.00 124.00 129.00 132.00 136.00 161.00 165.00 171.00 173.00 178.00"/>
    </vehicle>

    <vehicle id="0_30" type="car" depart="49.00" departSpeed="18.2995" speedFactor="1.1786" arrival="179.00">
        <route edges="834845345#1 834845345#1-AddedOffRampEdge 834845345#2 834845345#3.0 834845345#4-AddedOnRampEdge 834845345#4 834845345#5.74 834845345#5.74.43 834845345#6 834845345#6.23 834845345#7 834845345#8 834845345#8.20 834845345#8.108 834845345#9 834845345#9.4 834845345#12 gneE14" exitTimes="63.00 67.00 98.00 101.00 108.00 112.00 114.00 119.00 122.00 126.00 131.00 133.00 138.00 163.00 166.00 172.00 174.00 179.00"/>
    </vehicle>

    <vehicle id="0_29" type="car" depart="48.00" departSpeed="20.8146" speedFactor="0.9313" arrival="180.00">
        <route edges="834845345#1 834845345#1-AddedOffRampEdge 834845345#2 834845345#3.0 834845345#4-AddedOnRampEdge 834845345#4 834845345#5.74 834845345#5.74.43 834845345#6 834845345#6.23 834845345#7 834845345#8 834845345#8.20 834845345#8.108 834845345#9 834845345#9.4 834845345#12 gneE14" exitTimes="64.00 68.00 98.00 101.00 108.00 112.00 114.00 119.00 122.00 126.00 131.00 133.00 137.00 164.00 167.00 173.00 175.00 180.00"/>
    </vehicle>

    <vehicle id="0_37" type="car" depart="60.00" departSpeed="19.017" speedFactor="1.1797" arrival="181.00">
        <route edges="834845345#1 834845345#1-AddedOffRampEdge 834845345#2 834845345#3.0 834845345#4-AddedOnRampEdge 834845345#4 834845345#5.74 834845345#5.74.43 834845345#6 834845345#6.23 834845345#7 834845345#8 834845345#8.20 834845345#8.108 834845345#9 834845345#9.4 834845345#12 gneE14" exitTimes="74.00 95.00 100.00 103.00 109.00 114.00 116.00 121.00 124.00 127.00 133.00 135.00 140.00 165.00 168.00 174.00 176.00 181.00"/>
    </vehicle>

    <vehicle id="0_40" type="car" depart="65.00" departSpeed="23.0294" speedFactor="1.0304" arrival="182.00">
        <route edges="834845345#1 834845345#1-AddedOffRampEdge 834845345#2 834845345#3.0 834845345#4-AddedOnRampEdge 834845345#4 834845345#5.74 834845345#5.74.43 834845345#6 834845345#6.23 834845345#7 834845345#8 834845345#8.20 834845345#8.108 834845345#9 834845345#9.4 834845345#12 gneE14" exitTimes="80.00 98.00 102.00 105.00 111.00 115.00 117.00 122.00 125.00 129.00 134.00 136.00 142.00 168.00 170.00 176.00 178.00 182.00"/>
    </vehicle>

    <vehicle id="0_49" type="car" depart="80.00" departSpeed="19.0064" speedFactor="0.8504" arrival="182.00">
        <route edges="834845345#1 834845345#1-AddedOffRampEdge 834845345#2 834845345#3.0 834845345#4-AddedOnRampEdge 834845345#4 834845345#5.74 834845345#5.74.43 834845345#6 834845345#6.23 834845345#7 834845345#8 834845345#8.20 834845345#8.108 834845345#9 834845345#9.4 834845345#12 gneE14" exitTimes="98.00 101.00 103.00 105.00 113.00 117.00 119.00 124.00 127.00 131.00 136.00 139.00 144.00 166.00 169.00 175.00 177.00 182.00"/>
    </vehicle>

    <vehicle id="0_50" type="car" depart="82.00" departSpeed="19.107" speedFactor="0.8549" arrival="184.00">
        <route edges="834845345#1 834845345#1-AddedOffRampEdge 834845345#2 834845345#3.0 834845345#4-AddedOnRampEdge 834845345#4 834845345#5.74 834845345#5.74.43 834845345#6 834845345#6.23 834845345#7 834845345#8 834845345#8.20 834845345#8.108 834845345#9 834845345#9.4 834845345#12 gneE14" exitTimes="100.00 103.00 105.00 107.00 114.00 118.00 121.00 126.00 129.00 132.00 138.00 140.00 146.00 168.00 171.00 177.00 179.00 184.00"/>
    </vehicle>

    <vehicle id="0_51" type="car" depart="83.00" departSpeed="16.9795" speedFactor="1.1689" arrival="184.00">
        <route edges="834845345#1 834845345#1-AddedOffRampEdge 834845345#2 834845345#3.0 834845345#4-AddedOnRampEdge 834845345#4 834845345#5.74 834845345#5.74.43 834845345#6 834845345#6.23 834845345#7 834845345#8 834845345#8.20 834845345#8.108 834845345#9 834845345#9.4 834845345#12 gneE14" exitTimes="97.00 101.00 104.00 106.00 113.00 117.00 119.00 124.00 127.00 130.00 136.00 138.00 164.00 170.00 172.00 177.00 179.00 184.00"/>
    </vehicle>

    <vehicle id="0_58" type="car" depart="95.00" departSpeed="22.8775" speedFactor="1.0236" arrival="185.00">
        <route edges="834845345#1 834845345#1-AddedOffRampEdge 834845345#2 834845345#3.0 834845345#4-AddedOnRampEdge 834845345#4 834845345#5.74 834845345#5.74.43 834845345#6 834845345#6.23 834845345#7 834845345#8 834845345#8.20 834845345#8.108 834845345#9 834845345#9.4 834845345#12 gneE14" exitTimes="110.00 112.00 114.00 115.00 121.00 125.00 127.00 131.00 133.00 137.00 141.00 143.00 167.00 171.00 174.00 179.00 181.00 185.00"/>
    </vehicle>

    <vehicle id="0_56" type="car" depart="91.00" departSpeed="20.0904" speedFactor="0.8989" arrival="186.00">
        <route edges="834845345#1 834845345#1-AddedOffRampEdge 834845345#2 834845345#3.0 834845345#4-AddedOnRampEdge 834845345#4 834845345#5.74 834845345#5.74.43 834845345#6 834845345#6.23 834845345#7 834845345#8 834845345#8.20 834845345#8.108 834845345#9 834845345#9.4 834845345#12 gneE14" exitTimes="108.00 111.00 112.00 114.00 121.00 125.00 127.00 132.00 134.00 138.00 143.00 145.00 164.00 170.00 172.00 179.00 181.00 186.00"/>
    </vehicle>

    <vehicle id="0_61" type="car" depart="99.00" departSpeed="21.5319" speedFactor="1.1193" arrival="187.00">
        <route edges="834845345#1 834845345#1-AddedOffRampEdge 834845345#2 834845345#3.0 834845345#4-AddedOnRampEdge 834845345#4 834845345#5.74 834845345#5.74.43 834845345#6 834845345#6.23 834845345#7 834845345#8 834845345#8.20 834845345#8.108 834845345#9 834845345#9.4 834845345#12 gneE14" exitTimes="113.00 115.00 117.00 118.00 124.00 128.00 129.00 134.00 138.00 141.00 145.00 147.00 167.00 172.00 174.00 180.00 182.00 187.00"/>
    </vehicle>

    <vehicle id="0_94" type="car" depart="153.00" departSpeed="30.308" speedFactor="1.0910" arrival="190.00">
        <route edges="8868160#0.7 Airport_to_US69 834845345#4-AddedOnRampEdge 834845345#4 834845345#5.74 gneE2 638636924#1.8" exitTimes="161.00 163.00 169.00 172.00 174.00 181.00 190.00"/>
    </vehicle>

</routes>
