<?xml version="1.0" encoding="UTF-8"?>

<!-- generated on 2025-05-06 20:06:36 by Eclipse SUMO sumo Version 1.22.0
<sumoConfiguration xmlns:xsi="http://www.w3.org/2001/XMLSchema-instance" xsi:noNamespaceSchemaLocation="http://sumo.dlr.de/xsd/sumoConfiguration.xsd">

    <input>
        <net-file value="net.net.xml"/>
        <route-files value="rou.route.xml"/>
    </input>

    <output>
        <tripinfo-output value="tripinfo.xml"/>
    </output>

    <time>
        <begin value="0"/>
        <end value="200"/>
    </time>

</sumoConfiguration>
-->

<tripinfos xmlns:xsi="http://www.w3.org/2001/XMLSchema-instance" xsi:noNamespaceSchemaLocation="http://sumo.dlr.de/xsd/tripinfo_file.xsd">
    <tripinfo id="0_0" depart="0.00" departLane="834845345#1_0" departPos="5.10" departSpeed="23.69" departDelay="0.00" arrival="28.00" arrivalLane="-8868160#0_0" arrivalPos="217.40" arrivalSpeed="29.14" duration="28.00" routeLength="645.64" waitingTime="0.00" waitingCount="0" stopTime="0.00" timeLoss="1.69" rerouteNo="0" devices="tripinfo_0_0" vType="car" speedFactor="1.06" vaporized=""/>
    <tripinfo id="0_1" depart="2.00" departLane="834845345#1_0" departPos="5.10" departSpeed="20.97" departDelay="0.38" arrival="33.00" arrivalLane="-8868160#0_0" arrivalPos="217.40" arrivalSpeed="25.30" duration="31.00" routeLength="645.64" waitingTime="0.00" waitingCount="0" stopTime="0.00" timeLoss="1.77" rerouteNo="0" devices="tripinfo_0_1" vType="car" speedFactor="0.94" vaporized=""/>
    <tripinfo id="0_2" depart="4.00" departLane="660891910#1_0" departPos="5.10" departSpeed="5.62" departDelay="0.76" arrival="48.00" arrivalLane="638636924#1.8_0" arrivalPos="115.93" arrivalSpeed="14.74" duration="44.00" routeLength="222.05" waitingTime="12.00" waitingCount="1" stopTime="0.00" timeLoss="18.73" rerouteNo="0" devices="tripinfo_0_2" vType="car" speedFactor="1.01" vaporized=""/>
    <tripinfo id="0_12" depart="20.00" departLane="834845345#1_0" departPos="5.10" departSpeed="23.40" departDelay="0.54" arrival="48.00" arrivalLane="-8868160#0_0" arrivalPos="217.40" arrivalSpeed="28.48" duration="28.00" routeLength="645.64" waitingTime="0.00" waitingCount="0" stopTime="0.00" timeLoss="1.56" rerouteNo="0" devices="tripinfo_0_12" vType="car" speedFactor="1.05" vaporized=""/>
    <tripinfo id="0_14" depart="23.00" departLane="834845345#1_0" departPos="5.10" departSpeed="22.15" departDelay="0.30" arrival="52.00" arrivalLane="-8868160#0_0" arrivalPos="217.40" arrivalSpeed="27.27" duration="29.00" routeLength="645.64" waitingTime="0.00" waitingCount="0" stopTime="0.00" timeLoss="1.45" rerouteNo="0" devices="tripinfo_0_14" vType="car" speedFactor="0.99" vaporized=""/>
    <tripinfo id="0_7" depart="12.00" departLane="8868160#0.7_0" departPos="5.10" departSpeed="24.61" departDelay="0.65" arrival="54.00" arrivalLane="638636924#1.8_0" arrivalPos="115.93" arrivalSpeed="13.60" duration="42.00" routeLength="740.00" waitingTime="0.00" waitingCount="0" stopTime="0.00" timeLoss="3.21" rerouteNo="0" devices="tripinfo_0_7" vType="car" speedFactor="0.89" vaporized=""/>
    <tripinfo id="0_15" depart="25.00" departLane="834845345#1_0" departPos="5.10" departSpeed="20.71" departDelay="0.68" arrival="56.00" arrivalLane="-8868160#0_0" arrivalPos="217.40" arrivalSpeed="24.72" duration="31.00" routeLength="645.64" waitingTime="0.00" waitingCount="0" stopTime="0.00" timeLoss="1.67" rerouteNo="0" devices="tripinfo_0_15" vType="car" speedFactor="0.93" vaporized=""/>
    <tripinfo id="0_16" depart="26.00" departLane="834845345#1_0" departPos="5.10" departSpeed="18.23" departDelay="0.05" arrival="59.00" arrivalLane="-8868160#0_0" arrivalPos="217.40" arrivalSpeed="24.34" duration="33.00" routeLength="645.64" waitingTime="0.00" waitingCount="0" stopTime="0.00" timeLoss="1.83" rerouteNo="0" devices="tripinfo_0_16" vType="car" speedFactor="0.88" vaporized=""/>
    <tripinfo id="0_18" depart="30.00" departLane="834845345#1_0" departPos="5.10" departSpeed="20.92" departDelay="0.81" arrival="61.00" arrivalLane="-8868160#0_0" arrivalPos="217.40" arrivalSpeed="25.71" duration="31.00" routeLength="645.64" waitingTime="0.00" waitingCount="0" stopTime="0.00" timeLoss="1.79" rerouteNo="0" devices="tripinfo_0_18" vType="car" speedFactor="0.94" vaporized=""/>
    <tripinfo id="0_5" depart="9.00" departLane="660891910#1_0" departPos="5.10" departSpeed="4.62" departDelay="0.89" arrival="66.00" arrivalLane="115872656#13.8_0" arrivalPos="403.86" arrivalSpeed="17.56" duration="57.00" routeLength="852.74" waitingTime="0.00" waitingCount="0" stopTime="0.00" timeLoss="5.34" rerouteNo="0" devices="tripinfo_0_5" vType="car" speedFactor="0.83" vaporized=""/>
    <tripinfo id="0_21" depart="35.00" departLane="115872656#4_0" departPos="5.10" departSpeed="22.58" departDelay="0.95" arrival="70.00" arrivalLane="8867312#6.18_0" arrivalPos="204.97" arrivalSpeed="14.68" duration="35.00" routeLength="507.88" waitingTime="0.00" waitingCount="0" stopTime="0.00" timeLoss="3.87" rerouteNo="0" devices="tripinfo_0_21" vType="car" speedFactor="1.01" vaporized=""/>
    <tripinfo id="0_28" depart="46.00" departLane="834845345#1_0" departPos="5.10" departSpeed="25.23" departDelay="0.59" arrival="75.00" arrivalLane="-8868160#0_0" arrivalPos="217.40" arrivalSpeed="30.52" duration="29.00" routeLength="645.64" waitingTime="0.00" waitingCount="0" stopTime="0.00" timeLoss="4.58" rerouteNo="0" devices="tripinfo_0_28" vType="car" speedFactor="1.13" vaporized=""/>
    <tripinfo id="0_33" depart="54.00" departLane="115872656#4_0" departPos="5.10" departSpeed="24.01" departDelay="0.49" arrival="76.00" arrivalLane="-8867312#4.11_0" arrivalPos="136.73" arrivalSpeed="17.23" duration="22.00" routeLength="407.09" waitingTime="0.00" waitingCount="0" stopTime="0.00" timeLoss="1.41" rerouteNo="0" devices="tripinfo_0_33" vType="car" speedFactor="1.17" vaporized=""/>
    <tripinfo id="0_3" depart="5.00" departLane="834845345#1_0" departPos="5.10" departSpeed="24.20" departDelay="0.14" arrival="81.00" arrivalLane="-660891910#1.13_0" arrivalPos="49.15" arrivalSpeed="5.93" duration="76.00" routeLength="873.90" waitingTime="22.00" waitingCount="1" stopTime="0.00" timeLoss="30.52" rerouteNo="0" devices="tripinfo_0_3" vType="car" speedFactor="1.08" vaporized=""/>
    <tripinfo id="0_38" depart="62.00" departLane="115872656#4_0" departPos="5.10" departSpeed="24.64" departDelay="0.38" arrival="85.00" arrivalLane="-8867312#4.11_0" arrivalPos="136.73" arrivalSpeed="16.32" duration="23.00" routeLength="407.09" waitingTime="0.00" waitingCount="0" stopTime="0.00" timeLoss="0.84" rerouteNo="0" devices="tripinfo_0_38" vType="car" speedFactor="1.10" vaporized=""/>
    <tripinfo id="0_4" depart="7.00" departLane="834845345#1_0" departPos="5.10" departSpeed="23.03" departDelay="0.51" arrival="87.00" arrivalLane="8867312#6.18_0" arrivalPos="204.97" arrivalSpeed="15.99" duration="80.00" routeLength="1389.47" waitingTime="4.00" waitingCount="1" stopTime="0.00" timeLoss="14.86" rerouteNo="0" devices="tripinfo_0_4" vType="car" speedFactor="1.03" vaporized=""/>
    <tripinfo id="0_20" depart="33.00" departLane="115872656#4_0" departPos="5.10" departSpeed="22.75" departDelay="0.57" arrival="90.00" arrivalLane="638636924#1.8_0" arrivalPos="115.93" arrivalSpeed="15.63" duration="57.00" routeLength="801.18" waitingTime="1.00" waitingCount="1" stopTime="0.00" timeLoss="11.95" rerouteNo="0" devices="tripinfo_0_20" vType="car" speedFactor="1.02" vaporized=""/>
    <tripinfo id="0_9" depart="15.00" departLane="8868160#0.7_0" departPos="5.10" departSpeed="23.80" departDelay="0.41" arrival="95.00" arrivalLane="8867312#6.18_0" arrivalPos="204.97" arrivalSpeed="13.29" duration="80.00" routeLength="1214.62" waitingTime="0.00" waitingCount="0" stopTime="0.00" timeLoss="12.62" rerouteNo="0" devices="tripinfo_0_9" vType="car" speedFactor="0.86" vaporized=""/>
    <tripinfo id="0_44" depart="72.00" departLane="834845345#1_0" departPos="5.10" departSpeed="23.32" departDelay="0.65" arrival="101.00" arrivalLane="-8868160#0_0" arrivalPos="217.40" arrivalSpeed="28.45" duration="29.00" routeLength="645.64" waitingTime="0.00" waitingCount="0" stopTime="0.00" timeLoss="3.13" rerouteNo="0" devices="tripinfo_0_44" vType="car" speedFactor="1.04" vaporized=""/>
    <tripinfo id="0_46" depart="75.00" departLane="834845345#1_0" departPos="5.10" departSpeed="22.29" departDelay="0.41" arrival="105.00" arrivalLane="-8868160#0_0" arrivalPos="217.40" arrivalSpeed="27.16" duration="30.00" routeLength="645.64" waitingTime="0.00" waitingCount="0" stopTime="0.00" timeLoss="2.17" rerouteNo="0" devices="tripinfo_0_46" vType="car" speedFactor="1.00" vaporized=""/>
    <tripinfo id="0_53" depart="86.00" departLane="834845345#1_0" departPos="5.10" departSpeed="24.49" departDelay="0.05" arrival="115.00" arrivalLane="-8868160#0_0" arrivalPos="217.40" arrivalSpeed="29.70" duration="29.00" routeLength="645.64" waitingTime="0.00" waitingCount="0" stopTime="0.00" timeLoss="4.17" rerouteNo="0" devices="tripinfo_0_53" vType="car" speedFactor="1.10" vaporized=""/>
    <tripinfo id="0_10" depart="17.00" departLane="834845345#1_0" departPos="5.10" departSpeed="24.38" departDelay="0.78" arrival="117.00" arrivalLane="gneE14_0" arrivalPos="90.81" arrivalSpeed="24.01" duration="100.00" routeLength="1457.51" waitingTime="19.00" waitingCount="1" stopTime="0.00" timeLoss="39.31" rerouteNo="0" devices="tripinfo_0_10" vType="car" speedFactor="1.09" vaporized=""/>
    <tripinfo id="0_24" depart="39.00" departLane="660891910#1_0" departPos="5.10" departSpeed="4.59" departDelay="0.08" arrival="117.00" arrivalLane="115872656#13.8_0" arrivalPos="403.86" arrivalSpeed="17.71" duration="78.00" routeLength="852.74" waitingTime="12.00" waitingCount="1" stopTime="0.00" timeLoss="26.02" rerouteNo="0" devices="tripinfo_0_24" vType="car" speedFactor="0.83" vaporized=""/>
    <tripinfo id="0_6" depart="10.00" departLane="834845345#1_0" departPos="5.10" departSpeed="23.37" departDelay="0.27" arrival="118.00" arrivalLane="gneE14_0" arrivalPos="90.81" arrivalSpeed="22.40" duration="108.00" routeLength="1457.51" waitingTime="24.00" waitingCount="1" stopTime="0.00" timeLoss="45.09" rerouteNo="0" devices="tripinfo_0_6" vType="car" speedFactor="1.05" vaporized=""/>
    <tripinfo id="0_17" depart="28.00" departLane="8868160#0.7_0" departPos="5.10" departSpeed="26.15" departDelay="0.43" arrival="120.00" arrivalLane="gneE14_1" arrivalPos="90.81" arrivalSpeed="20.65" duration="92.00" routeLength="1282.66" waitingTime="17.00" waitingCount="1" stopTime="0.00" timeLoss="32.49" rerouteNo="0" devices="tripinfo_0_17" vType="car" speedFactor="0.94" vaporized=""/>
    <tripinfo id="0_31" depart="51.00" departLane="660891910#1_0" departPos="5.10" departSpeed="6.42" departDelay="0.73" arrival="122.00" arrivalLane="-8868160#0_1" arrivalPos="217.40" arrivalSpeed="30.78" duration="71.00" routeLength="704.32" waitingTime="19.00" waitingCount="2" stopTime="0.00" timeLoss="40.08" rerouteNo="0" devices="tripinfo_0_31" vType="car" speedFactor="1.15" vaporized=""/>
    <tripinfo id="0_57" depart="93.00" departLane="834845345#1_0" departPos="5.10" departSpeed="21.26" departDelay="0.57" arrival="124.00" arrivalLane="-8868160#0_0" arrivalPos="217.40" arrivalSpeed="31.42" duration="31.00" routeLength="645.64" waitingTime="0.00" waitingCount="0" stopTime="0.00" timeLoss="6.62" rerouteNo="0" devices="tripinfo_0_57" vType="car" speedFactor="1.14" vaporized=""/>
    <tripinfo id="0_63" depart="103.00" departLane="834845345#1_0" departPos="5.10" departSpeed="22.06" departDelay="0.84" arrival="132.00" arrivalLane="-8868160#0_0" arrivalPos="217.40" arrivalSpeed="26.53" duration="29.00" routeLength="645.64" waitingTime="0.00" waitingCount="0" stopTime="0.00" timeLoss="1.46" rerouteNo="0" devices="tripinfo_0_63" vType="car" speedFactor="0.99" vaporized=""/>
    <tripinfo id="0_36" depart="59.00" departLane="834845345#1_0" departPos="5.10" departSpeed="21.75" departDelay="0.62" arrival="133.00" arrivalLane="gneE29_0" arrivalPos="112.89" arrivalSpeed="12.31" duration="74.00" routeLength="961.36" waitingTime="13.00" waitingCount="1" stopTime="0.00" timeLoss="26.41" rerouteNo="0" devices="tripinfo_0_36" vType="car" speedFactor="0.97" vaporized=""/>
    <tripinfo id="0_66" depart="108.00" departLane="834845345#1_0" departPos="5.10" departSpeed="20.27" departDelay="0.97" arrival="140.00" arrivalLane="-8868160#0_0" arrivalPos="217.40" arrivalSpeed="24.33" duration="32.00" routeLength="645.64" waitingTime="0.00" waitingCount="0" stopTime="0.00" timeLoss="1.76" rerouteNo="0" devices="tripinfo_0_66" vType="car" speedFactor="0.91" vaporized=""/>
    <tripinfo id="0_67" depart="109.00" departLane="834845345#1_0" departPos="5.10" departSpeed="18.37" departDelay="0.35" arrival="142.00" arrivalLane="-8868160#0_0" arrivalPos="217.40" arrivalSpeed="25.32" duration="33.00" routeLength="645.64" waitingTime="0.00" waitingCount="0" stopTime="0.00" timeLoss="2.72" rerouteNo="0" devices="tripinfo_0_67" vType="car" speedFactor="0.91" vaporized=""/>
    <tripinfo id="0_11" depart="18.00" departLane="115872656#4_0" departPos="5.10" departSpeed="22.94" departDelay="0.16" arrival="144.00" arrivalLane="115872656#13.8_0" arrivalPos="403.86" arrivalSpeed="22.05" duration="126.00" routeLength="1455.80" waitingTime="40.00" waitingCount="2" stopTime="0.00" timeLoss="57.32" rerouteNo="0" devices="tripinfo_0_11" vType="car" speedFactor="1.03" vaporized=""/>
    <tripinfo id="0_62" depart="101.00" departLane="660891910#1_0" departPos="5.10" departSpeed="5.65" departDelay="0.46" arrival="146.00" arrivalLane="-8868160#0_1" arrivalPos="217.40" arrivalSpeed="26.96" duration="45.00" routeLength="704.32" waitingTime="0.00" waitingCount="0" stopTime="0.00" timeLoss="9.26" rerouteNo="0" devices="tripinfo_0_62" vType="car" speedFactor="1.02" vaporized=""/>
    <tripinfo id="0_8" depart="13.00" departLane="115872656#4_0" departPos="5.10" departSpeed="20.96" departDelay="0.03" arrival="147.00" arrivalLane="115872656#13.8_0" arrivalPos="403.86" arrivalSpeed="20.35" duration="134.00" routeLength="1455.80" waitingTime="43.00" waitingCount="2" stopTime="0.00" timeLoss="58.56" rerouteNo="0" devices="tripinfo_0_8" vType="car" speedFactor="0.94" vaporized=""/>
    <tripinfo id="0_75" depart="122.00" departLane="834845345#1_0" departPos="5.10" departSpeed="22.01" departDelay="0.38" arrival="151.00" arrivalLane="-8868160#0_0" arrivalPos="217.40" arrivalSpeed="26.52" duration="29.00" routeLength="645.64" waitingTime="0.00" waitingCount="0" stopTime="0.00" timeLoss="1.16" rerouteNo="0" devices="tripinfo_0_75" vType="car" speedFactor="0.98" vaporized=""/>
    <tripinfo id="0_23" depart="38.00" departLane="115872656#4_0" departPos="5.10" departSpeed="19.88" departDelay="0.70" arrival="153.00" arrivalLane="115872656#13.8_0" arrivalPos="403.86" arrivalSpeed="18.59" duration="115.00" routeLength="1455.80" waitingTime="21.00" waitingCount="1" stopTime="0.00" timeLoss="36.16" rerouteNo="0" devices="tripinfo_0_23" vType="car" speedFactor="0.89" vaporized=""/>
    <tripinfo id="0_77" depart="125.00" departLane="834845345#1_0" departPos="5.10" departSpeed="21.24" departDelay="0.14" arrival="155.00" arrivalLane="-8868160#0_0" arrivalPos="217.40" arrivalSpeed="27.01" duration="30.00" routeLength="645.64" waitingTime="0.00" waitingCount="0" stopTime="0.00" timeLoss="1.77" rerouteNo="0" devices="tripinfo_0_77" vType="car" speedFactor="0.98" vaporized=""/>
    <tripinfo id="0_60" depart="98.00" departLane="834845345#1_0" departPos="5.10" departSpeed="24.19" departDelay="0.70" arrival="162.00" arrivalLane="-660891910#1.13_0" arrivalPos="49.15" arrivalSpeed="4.96" duration="64.00" routeLength="873.90" waitingTime="10.00" waitingCount="1" stopTime="0.00" timeLoss="18.02" rerouteNo="0" devices="tripinfo_0_60" vType="car" speedFactor="1.08" vaporized=""/>
    <tripinfo id="0_87" depart="142.00" departLane="115872656#4_0" departPos="5.10" departSpeed="23.31" departDelay="0.92" arrival="167.00" arrivalLane="-8867312#4.11_0" arrivalPos="136.73" arrivalSpeed="15.58" duration="25.00" routeLength="407.09" waitingTime="0.00" waitingCount="0" stopTime="0.00" timeLoss="1.23" rerouteNo="0" devices="tripinfo_0_87" vType="car" speedFactor="1.04" vaporized=""/>
    <tripinfo id="0_84" depart="137.00" departLane="8868160#0.7_0" departPos="5.10" departSpeed="28.98" departDelay="0.78" arrival="168.00" arrivalLane="115872656#13.8_1" arrivalPos="403.86" arrivalSpeed="25.58" duration="31.00" routeLength="684.47" waitingTime="0.00" waitingCount="0" stopTime="0.00" timeLoss="3.25" rerouteNo="0" devices="tripinfo_0_84" vType="car" speedFactor="1.15" vaporized=""/>
    <tripinfo id="0_88" depart="143.00" departLane="115872656#4_0" departPos="5.10" departSpeed="20.95" departDelay="0.30" arrival="169.00" arrivalLane="-8867312#4.11_0" arrivalPos="136.73" arrivalSpeed="15.06" duration="26.00" routeLength="407.09" waitingTime="0.00" waitingCount="0" stopTime="0.00" timeLoss="1.85" rerouteNo="0" devices="tripinfo_0_88" vType="car" speedFactor="1.01" vaporized=""/>
    <tripinfo id="0_13" depart="22.00" departLane="834845345#1_0" departPos="5.10" departSpeed="25.10" departDelay="0.92" arrival="173.00" arrivalLane="gneE14_0" arrivalPos="90.81" arrivalSpeed="24.67" duration="151.00" routeLength="1457.51" waitingTime="72.00" waitingCount="2" stopTime="0.00" timeLoss="92.50" rerouteNo="0" devices="tripinfo_0_13" vType="car" speedFactor="1.12" vaporized=""/>
    <tripinfo id="0_19" depart="31.00" departLane="834845345#1_0" departPos="5.10" departSpeed="19.13" departDelay="0.19" arrival="173.00" arrivalLane="gneE14_1" arrivalPos="90.81" arrivalSpeed="25.15" duration="142.00" routeLength="1457.51" waitingTime="63.00" waitingCount="2" stopTime="0.00" timeLoss="84.92" rerouteNo="0" devices="tripinfo_0_19" vType="car" speedFactor="1.16" vaporized=""/>
    <tripinfo id="0_25" depart="41.00" departLane="834845345#1_0" departPos="5.10" departSpeed="19.50" departDelay="0.46" arrival="176.00" arrivalLane="gneE14_1" arrivalPos="90.81" arrivalSpeed="19.22" duration="135.00" routeLength="1457.51" waitingTime="42.00" waitingCount="2" stopTime="0.00" timeLoss="60.12" rerouteNo="0" devices="tripinfo_0_25" vType="car" speedFactor="0.87" vaporized=""/>
    <tripinfo id="0_22" depart="36.00" departLane="834845345#1_0" departPos="5.10" departSpeed="21.79" departDelay="0.32" arrival="177.00" arrivalLane="gneE14_0" arrivalPos="90.81" arrivalSpeed="20.79" duration="141.00" routeLength="1457.51" waitingTime="52.00" waitingCount="2" stopTime="0.00" timeLoss="73.28" rerouteNo="0" devices="tripinfo_0_22" vType="car" speedFactor="0.97" vaporized=""/>
    <tripinfo id="0_26" depart="43.00" departLane="834845345#1_0" departPos="5.10" departSpeed="20.50" departDelay="0.84" arrival="178.00" arrivalLane="gneE14_0" arrivalPos="90.81" arrivalSpeed="20.20" duration="135.00" routeLength="1457.51" waitingTime="41.00" waitingCount="2" stopTime="0.00" timeLoss="63.54" rerouteNo="0" devices="tripinfo_0_26" vType="car" speedFactor="0.92" vaporized=""/>
    <tripinfo id="0_27" depart="44.00" departLane="834845345#1_0" departPos="5.10" departSpeed="18.82" departDelay="0.22" arrival="178.00" arrivalLane="gneE14_1" arrivalPos="90.81" arrivalSpeed="20.58" duration="134.00" routeLength="1457.51" waitingTime="42.00" waitingCount="2" stopTime="0.00" timeLoss="64.57" rerouteNo="0" devices="tripinfo_0_27" vType="car" speedFactor="0.95" vaporized=""/>
    <tripinfo id="0_30" depart="49.00" departLane="834845345#1_0" departPos="5.10" departSpeed="18.30" departDelay="0.35" arrival="179.00" arrivalLane="gneE14_1" arrivalPos="90.81" arrivalSpeed="22.67" duration="130.00" routeLength="1457.51" waitingTime="38.00" waitingCount="2" stopTime="0.00" timeLoss="74.44" rerouteNo="0" devices="tripinfo_0_30" vType="car" speedFactor="1.18" vaporized=""/>
    <tripinfo id="0_29" depart="48.00" departLane="834845345#1_0" departPos="5.10" departSpeed="20.81" departDelay="0.97" arrival="180.00" arrivalLane="gneE14_0" arrivalPos="90.81" arrivalSpeed="20.66" duration="132.00" routeLength="1457.51" waitingTime="38.00" waitingCount="2" stopTime="0.00" timeLoss="61.30" rerouteNo="0" devices="tripinfo_0_29" vType="car" speedFactor="0.93" vaporized=""/>
    <tripinfo id="0_37" depart="60.00" departLane="834845345#1_0" departPos="5.10" departSpeed="19.02" departDelay="0.00" arrival="181.00" arrivalLane="gneE14_1" arrivalPos="90.81" arrivalSpeed="24.54" duration="121.00" routeLength="1457.51" waitingTime="29.00" waitingCount="2" stopTime="0.00" timeLoss="64.99" rerouteNo="0" devices="tripinfo_0_37" vType="car" speedFactor="1.18" vaporized=""/>
    <tripinfo id="0_40" depart="65.00" departLane="834845345#1_0" departPos="5.10" departSpeed="23.03" departDelay="0.14" arrival="182.00" arrivalLane="gneE14_1" arrivalPos="90.81" arrivalSpeed="21.78" duration="117.00" routeLength="1457.51" waitingTime="23.00" waitingCount="2" stopTime="0.00" timeLoss="53.59" rerouteNo="0" devices="tripinfo_0_40" vType="car" speedFactor="1.03" vaporized=""/>
    <tripinfo id="0_49" depart="80.00" departLane="834845345#1_0" departPos="5.10" departSpeed="19.01" departDelay="0.54" arrival="182.00" arrivalLane="gneE14_0" arrivalPos="90.81" arrivalSpeed="18.92" duration="102.00" routeLength="1457.51" waitingTime="12.00" waitingCount="1" stopTime="0.00" timeLoss="25.14" rerouteNo="0" devices="tripinfo_0_49" vType="car" speedFactor="0.85" vaporized=""/>
    <tripinfo id="0_50" depart="82.00" departLane="834845345#1_0" departPos="5.10" departSpeed="19.11" departDelay="0.92" arrival="184.00" arrivalLane="gneE14_0" arrivalPos="90.81" arrivalSpeed="18.18" duration="102.00" routeLength="1457.51" waitingTime="11.00" waitingCount="1" stopTime="0.00" timeLoss="25.47" rerouteNo="0" devices="tripinfo_0_50" vType="car" speedFactor="0.85" vaporized=""/>
    <tripinfo id="0_51" depart="83.00" departLane="834845345#1_0" departPos="5.10" departSpeed="16.98" departDelay="0.30" arrival="184.00" arrivalLane="gneE14_1" arrivalPos="90.81" arrivalSpeed="26.04" duration="101.00" routeLength="1457.51" waitingTime="14.00" waitingCount="1" stopTime="0.00" timeLoss="44.47" rerouteNo="0" devices="tripinfo_0_51" vType="car" speedFactor="1.17" vaporized=""/>
    <tripinfo id="0_58" depart="95.00" departLane="834845345#1_0" departPos="5.10" departSpeed="22.88" departDelay="0.95" arrival="185.00" arrivalLane="gneE14_1" arrivalPos="90.81" arrivalSpeed="22.63" duration="90.00" routeLength="1457.51" waitingTime="13.00" waitingCount="1" stopTime="0.00" timeLoss="26.11" rerouteNo="0" devices="tripinfo_0_58" vType="car" speedFactor="1.02" vaporized=""/>
    <tripinfo id="0_56" depart="91.00" departLane="834845345#1_0" departPos="5.10" departSpeed="20.09" departDelay="0.19" arrival="186.00" arrivalLane="gneE14_0" arrivalPos="90.81" arrivalSpeed="18.90" duration="95.00" routeLength="1457.51" waitingTime="9.00" waitingCount="1" stopTime="0.00" timeLoss="21.80" rerouteNo="0" devices="tripinfo_0_56" vType="car" speedFactor="0.90" vaporized=""/>
    <tripinfo id="0_61" depart="99.00" departLane="834845345#1_0" departPos="5.10" departSpeed="21.53" departDelay="0.08" arrival="187.00" arrivalLane="gneE14_0" arrivalPos="90.81" arrivalSpeed="21.67" duration="88.00" routeLength="1457.51" waitingTime="5.00" waitingCount="2" stopTime="0.00" timeLoss="29.47" rerouteNo="0" devices="tripinfo_0_61" vType="car" speedFactor="1.12" vaporized=""/>
    <tripinfo id="0_94" depart="153.00" departLane="8868160#0.7_0" departPos="5.10" departSpeed="30.31" departDelay="0.57" arrival="190.00" arrivalLane="638636924#1.8_0" arrivalPos="115.93" arrivalSpeed="16.44" duration="37.00" routeLength="740.00" waitingTime="0.00" waitingCount="0" stopTime="0.00" timeLoss="5.72" rerouteNo="0" devices="tripinfo_0_94" vType="car" speedFactor="1.09" vaporized=""/>
</tripinfos>
