<?xml version='1.0' encoding='UTF-8'?>
<tripinfos><tripinfo id="baseline_0" depart="546.6800664241877" waitingTime="12.958810147983188" duration="82.95881014798319" routeLength="1033.34" timeLoss="23.32585826636974" /><tripinfo id="baseline_1" depart="503.9498337644586" waitingTime="11.125397607455408" duration="81.12539760745541" routeLength="1033.34" timeLoss="20.025715693419734" /><tripinfo id="baseline_2" depart="242.22564141453304" waitingTime="13.408990730463197" duration="83.4089907304632" routeLength="1033.34" timeLoss="24.136183314833755" /><tripinfo id="baseline_3" depart="656.3389594857584" waitingTime="16.131441988776476" duration="86.13144198877647" routeLength="1033.34" timeLoss="29.03659557979766" /><tripinfo id="baseline_4" depart="206.73017184074178" waitingTime="17.33104379416569" duration="87.3310437941657" routeLength="1033.34" timeLoss="31.195878829498245" /><tripinfo id="baseline_5" depart="101.58835066364355" waitingTime="16.24854464381484" duration="86.24854464381484" routeLength="1033.34" timeLoss="29.24738035886671" /><tripinfo id="baseline_6" depart="154.7322550752652" waitingTime="15.644303863154411" duration="85.6443038631544" routeLength="1033.34" timeLoss="28.15974695367794" /><tripinfo id="baseline_7" depart="44.92810036028034" waitingTime="17.707886037780256" duration="87.70788603778026" routeLength="1033.34" timeLoss="31.874194868004462" /><tripinfo id="baseline_8" depart="724.9583759018499" waitingTime="12.908725707905326" duration="82.90872570790532" routeLength="1033.34" timeLoss="23.23570627422959" /><tripinfo id="baseline_9" depart="611.201934868999" waitingTime="16.06959210827523" duration="86.06959210827523" routeLength="1033.34" timeLoss="28.925265794895417" /><tripinfo id="baseline_10" depart="188.89649013168838" waitingTime="16.213004985880342" duration="86.21300498588035" routeLength="1033.34" timeLoss="29.183408974584616" /><tripinfo id="baseline_11" depart="482.2125288791897" waitingTime="17.759691176038235" duration="87.75969117603823" routeLength="1033.34" timeLoss="31.967444116868823" /><tripinfo id="baseline_12" depart="38.96621449266418" waitingTime="13.706326795425149" duration="83.70632679542516" routeLength="1033.34" timeLoss="24.671388231765267" /><tripinfo id="baseline_13" depart="120.68733441486579" waitingTime="14.700253130170458" duration="84.70025313017045" routeLength="1033.34" timeLoss="26.460455634306825" /><tripinfo id="baseline_14" depart="118.55433562981447" waitingTime="13.088023457365395" duration="83.0880234573654" routeLength="1033.34" timeLoss="23.55844222325771" /><tripinfo id="baseline_15" depart="684.9561372396417" waitingTime="13.873865602339473" duration="83.87386560233948" routeLength="1033.34" timeLoss="24.97295808421105" /><tripinfo id="baseline_16" depart="392.38015320644433" waitingTime="13.031457481809323" duration="83.03145748180933" routeLength="1033.34" timeLoss="23.456623467256783" /><tripinfo id="baseline_17" depart="566.5337829079117" waitingTime="14.051718411970583" duration="84.05171841197058" routeLength="1033.34" timeLoss="25.29309314154705" /><tripinfo id="baseline_18" depart="119.78642301941838" waitingTime="15.984333127954374" duration="85.98433312795437" routeLength="1033.34" timeLoss="28.771799630317872" /><tripinfo id="baseline_19" depart="386.643922705491" waitingTime="16.83191021190787" duration="86.83191021190787" routeLength="1033.34" timeLoss="30.29743838143417" /><tripinfo id="baseline_20" depart="681.9989178149854" waitingTime="12.796685800921345" duration="82.79668580092135" routeLength="1033.34" timeLoss="23.034034441658424" /><tripinfo id="baseline_21" depart="544.8308598764623" waitingTime="13.860030454969651" duration="83.86003045496965" routeLength="1033.34" timeLoss="24.948054818945373" /><tripinfo id="baseline_22" depart="526.6420494152798" waitingTime="19.11149917803598" duration="89.11149917803598" routeLength="1033.34" timeLoss="34.400698520464765" /><tripinfo id="baseline_23" depart="493.04202328124927" waitingTime="11.822846286620612" duration="81.82284628662062" routeLength="1033.34" timeLoss="21.281123315917103" /><tripinfo id="baseline_24" depart="620.1334226434075" waitingTime="17.32299501589469" duration="87.32299501589469" routeLength="1033.34" timeLoss="31.181391028610445" /><tripinfo id="baseline_25" depart="689.0854219292822" waitingTime="15.728743761548936" duration="85.72874376154894" routeLength="1033.34" timeLoss="28.311738770788086" /><tripinfo id="baseline_26" depart="755.6497152451044" waitingTime="19.216774658510282" duration="89.21677465851027" routeLength="1033.34" timeLoss="34.59019438531851" /><tripinfo id="baseline_27" depart="278.5064746720705" waitingTime="18.166021624648472" duration="88.16602162464847" routeLength="1033.34" timeLoss="32.69883892436725" /><tripinfo id="baseline_28" depart="366.2790705104646" waitingTime="12.054890764044048" duration="82.05489076404405" routeLength="1033.34" timeLoss="21.698803375279287" /><tripinfo id="baseline_29" depart="30.737807464061273" waitingTime="18.483220307267242" duration="88.48322030726725" routeLength="1033.34" timeLoss="33.26979655308104" /><tripinfo id="baseline_30" depart="476.4978095212108" waitingTime="17.284989142578127" duration="87.28498914257813" routeLength="1033.34" timeLoss="31.112980456640628" /><tripinfo id="baseline_31" depart="775.3890617930249" waitingTime="15.631881551462438" duration="85.63188155146244" routeLength="1033.34" timeLoss="28.13738679263239" /><tripinfo id="baseline_32" depart="747.6837120049263" waitingTime="19.161123368343606" duration="89.16112336834361" routeLength="1033.34" timeLoss="34.49002206301849" /><tripinfo id="baseline_33" depart="29.240591396403914" waitingTime="11.959793186443756" duration="81.95979318644376" routeLength="1033.34" timeLoss="21.52762773559876" /><tripinfo id="baseline_34" depart="142.94258422252685" waitingTime="17.931981821774535" duration="87.93198182177454" routeLength="1033.34" timeLoss="32.277567279194166" /><tripinfo id="baseline_35" depart="666.7102016316963" waitingTime="13.75387874063909" duration="83.7538787406391" routeLength="1033.34" timeLoss="24.75698173315036" /><tripinfo id="baseline_36" depart="99.80328501183884" waitingTime="11.279376879579887" duration="81.27937687957989" routeLength="1033.34" timeLoss="20.302878383243797" /><tripinfo id="baseline_37" depart="496.5812255276665" waitingTime="13.767691407356624" duration="83.76769140735662" routeLength="1033.34" timeLoss="24.781844533241923" /><tripinfo id="baseline_38" depart="138.05549179978325" waitingTime="16.497798976337037" duration="86.49779897633704" routeLength="1033.34" timeLoss="29.69603815740667" /><tripinfo id="baseline_39" depart="370.48450981012263" waitingTime="14.435292736820568" duration="84.43529273682057" routeLength="1033.34" timeLoss="25.983526926277023" /><tripinfo id="baseline_40" depart="544.9146515512546" waitingTime="13.355949441062252" duration="83.35594944106225" routeLength="1033.34" timeLoss="24.040708993912055" /><tripinfo id="baseline_41" depart="732.2095588384464" waitingTime="16.27943562928072" duration="86.27943562928073" routeLength="1033.34" timeLoss="29.302984132705294" /><tripinfo id="baseline_42" depart="75.651955414701" waitingTime="14.824174921919202" duration="84.8241749219192" routeLength="1033.34" timeLoss="26.683514859454565" /><tripinfo id="baseline_43" depart="500.80253175729695" waitingTime="15.258455257887602" duration="85.2584552578876" routeLength="1033.34" timeLoss="27.465219464197684" /><tripinfo id="baseline_44" depart="31.07573604788607" waitingTime="14.563543011774273" duration="84.56354301177427" routeLength="1033.34" timeLoss="26.214377421193692" /><tripinfo id="baseline_45" depart="168.3684988593515" waitingTime="15.036981917996131" duration="85.03698191799613" routeLength="1033.34" timeLoss="27.066567452393038" /><tripinfo id="baseline_46" depart="671.0212396540501" waitingTime="16.006546975642117" duration="86.00654697564212" routeLength="1033.34" timeLoss="28.81178455615581" /><tripinfo id="baseline_47" depart="582.8233481694348" waitingTime="17.758005514374922" duration="87.75800551437493" routeLength="1033.34" timeLoss="31.96440992587486" /><tripinfo id="baseline_48" depart="461.5472155979064" waitingTime="11.100309031619197" duration="81.10030903161919" routeLength="1033.34" timeLoss="19.980556256914557" /><tripinfo id="baseline_49" depart="250.01279446240662" waitingTime="15.364816007255273" duration="85.36481600725527" routeLength="1033.34" timeLoss="27.656668813059493" /><tripinfo id="baseline_50" depart="314.9304264440186" waitingTime="13.502038902698983" duration="83.50203890269898" routeLength="1033.34" timeLoss="24.30367002485817" /><tripinfo id="baseline_51" depart="707.4799922165483" waitingTime="15.656477845037703" duration="85.6564778450377" routeLength="1033.34" timeLoss="28.181660121067864" /><tripinfo id="baseline_52" depart="16.481822513776656" waitingTime="10.55352876316041" duration="80.55352876316041" routeLength="1033.34" timeLoss="18.996351773688737" /><tripinfo id="baseline_53" depart="399.1805072479844" waitingTime="16.614828138893333" duration="86.61482813889333" routeLength="1033.34" timeLoss="29.906690650008002" /><tripinfo id="baseline_54" depart="575.5533341085139" waitingTime="18.25884343076938" duration="88.25884343076939" routeLength="1033.34" timeLoss="32.86591817538489" /><tripinfo id="baseline_55" depart="270.545348983081" waitingTime="14.031112004784648" duration="84.03111200478465" routeLength="1033.34" timeLoss="25.256001608612365" /><tripinfo id="baseline_56" depart="152.02520124896762" waitingTime="18.652550512137363" duration="88.65255051213737" routeLength="1033.34" timeLoss="33.57459092184725" /><tripinfo id="baseline_57" depart="518.0071626327906" waitingTime="18.248948552342437" duration="88.24894855234244" routeLength="1033.34" timeLoss="32.848107394216385" /></tripinfos>