<?xml version='1.0' encoding='UTF-8'?>
<tripinfos><tripinfo id="baseline_0" depart="201.41317938090734" waitingTime="16.544104768241052" duration="86.54410476824106" routeLength="1033.34" timeLoss="29.779388582833896" /><tripinfo id="baseline_1" depart="83.31771825625952" waitingTime="11.750244320892763" duration="81.75024432089276" routeLength="1033.34" timeLoss="21.150439777606973" /><tripinfo id="baseline_2" depart="158.99638326453544" waitingTime="11.885133253083291" duration="81.8851332530833" routeLength="1033.34" timeLoss="21.393239855549925" /><tripinfo id="baseline_3" depart="407.6775968430367" waitingTime="11.971588720158204" duration="81.97158872015821" routeLength="1033.34" timeLoss="21.54885969628477" /><tripinfo id="baseline_4" depart="765.2456184857465" waitingTime="11.167211062449207" duration="81.16721106244921" routeLength="1033.34" timeLoss="20.100979912408572" /><tripinfo id="baseline_5" depart="417.34402225212176" waitingTime="17.489795330597172" duration="87.48979533059718" routeLength="1033.34" timeLoss="31.48163159507491" /><tripinfo id="baseline_6" depart="107.09656827753574" waitingTime="15.874535688793648" duration="85.87453568879364" routeLength="1033.34" timeLoss="28.574164239828566" /><tripinfo id="baseline_7" depart="745.5306936154603" waitingTime="14.325587949328353" duration="84.32558794932835" routeLength="1033.34" timeLoss="25.786058308791038" /><tripinfo id="baseline_8" depart="627.1785278959904" waitingTime="17.40535096712382" duration="87.40535096712382" routeLength="1033.34" timeLoss="31.329631740822876" /><tripinfo id="baseline_9" depart="352.7957129960961" waitingTime="15.824862410859215" duration="85.82486241085921" routeLength="1033.34" timeLoss="28.48475233954659" /><tripinfo id="baseline_10" depart="794.5591729047728" waitingTime="18.102262082554798" duration="88.1022620825548" routeLength="1033.34" timeLoss="32.58407174859864" /><tripinfo id="baseline_11" depart="141.03057625990257" waitingTime="11.484246093016385" duration="81.48424609301638" routeLength="1033.34" timeLoss="20.67164296742949" /><tripinfo id="baseline_12" depart="125.07316926466797" waitingTime="18.33215303920716" duration="88.33215303920716" routeLength="1033.34" timeLoss="32.997875470572886" /><tripinfo id="baseline_13" depart="143.71709327074706" waitingTime="17.95761292336494" duration="87.95761292336493" routeLength="1033.34" timeLoss="32.323703262056895" /><tripinfo id="baseline_14" depart="20.11370024721435" waitingTime="11.368467340366434" duration="81.36846734036644" routeLength="1033.34" timeLoss="20.463241212659582" /><tripinfo id="baseline_15" depart="179.02455587113576" waitingTime="18.534530159158496" duration="88.53453015915849" routeLength="1033.34" timeLoss="33.36215428648529" /><tripinfo id="baseline_16" depart="613.8638878098781" waitingTime="19.09191403401221" duration="89.0919140340122" routeLength="1033.34" timeLoss="34.36544526122198" /><tripinfo id="baseline_17" depart="726.7564683441246" waitingTime="14.727114320292317" duration="84.72711432029232" routeLength="1033.34" timeLoss="26.50880577652617" /><tripinfo id="baseline_18" depart="302.37911107756776" waitingTime="14.475632495559756" duration="84.47563249555975" routeLength="1033.34" timeLoss="26.056138492007562" /><tripinfo id="baseline_19" depart="446.2824649925282" waitingTime="18.627130965247954" duration="88.62713096524796" routeLength="1033.34" timeLoss="33.528835737446315" /><tripinfo id="baseline_20" depart="364.06431099046364" waitingTime="13.690128397167301" duration="83.6901283971673" routeLength="1033.34" timeLoss="24.642231114901143" /><tripinfo id="baseline_21" depart="576.8903095249618" waitingTime="11.433790948905438" duration="81.43379094890544" routeLength="1033.34" timeLoss="20.58082370802979" /><tripinfo id="baseline_22" depart="479.70173972827325" waitingTime="16.174765550734985" duration="86.17476555073499" routeLength="1033.34" timeLoss="29.114577991322975" /><tripinfo id="baseline_23" depart="793.3187085733938" waitingTime="11.696336517000164" duration="81.69633651700016" routeLength="1033.34" timeLoss="21.053405730600296" /><tripinfo id="baseline_24" depart="65.75237323484009" waitingTime="17.984208333808063" duration="87.98420833380806" routeLength="1033.34" timeLoss="32.37157500085451" /><tripinfo id="baseline_25" depart="554.6288349900454" waitingTime="14.91938830986314" duration="84.91938830986314" routeLength="1033.34" timeLoss="26.85489895775365" /><tripinfo id="baseline_26" depart="686.9754302085737" waitingTime="11.569475028477294" duration="81.5694750284773" routeLength="1033.34" timeLoss="20.82505505125913" /><tripinfo id="baseline_27" depart="568.1012512175859" waitingTime="15.928012468802281" duration="85.92801246880228" routeLength="1033.34" timeLoss="28.670422443844107" /><tripinfo id="baseline_28" depart="438.01217405056383" waitingTime="16.18374266751992" duration="86.18374266751992" routeLength="1033.34" timeLoss="29.130736801535853" /><tripinfo id="baseline_29" depart="632.8279851244563" waitingTime="15.882945546815105" duration="85.88294554681511" routeLength="1033.34" timeLoss="28.589301984267188" /><tripinfo id="baseline_30" depart="778.4100264332651" waitingTime="16.90125547786503" duration="86.90125547786502" routeLength="1033.34" timeLoss="30.42225986015705" /><tripinfo id="baseline_31" depart="80.12942322904183" waitingTime="14.317341354047787" duration="84.31734135404778" routeLength="1033.34" timeLoss="25.77121443728602" /><tripinfo id="baseline_32" depart="306.74268406887063" waitingTime="11.130971144083267" duration="81.13097114408326" routeLength="1033.34" timeLoss="20.03574805934988" /><tripinfo id="baseline_33" depart="454.10648463812464" waitingTime="17.093849014651646" duration="87.09384901465165" routeLength="1033.34" timeLoss="30.768928226372964" /><tripinfo id="baseline_34" depart="601.2944728383728" waitingTime="15.50440638620226" duration="85.50440638620226" routeLength="1033.34" timeLoss="27.90793149516407" /><tripinfo id="baseline_35" depart="778.7041215680108" waitingTime="16.734652422807027" duration="86.73465242280703" routeLength="1033.34" timeLoss="30.12237436105265" /><tripinfo id="baseline_36" depart="782.0398279646446" waitingTime="12.185210213056692" duration="82.18521021305669" routeLength="1033.34" timeLoss="21.933378383502045" /><tripinfo id="baseline_37" depart="780.3393765765429" waitingTime="11.5784213838217" duration="81.5784213838217" routeLength="1033.34" timeLoss="20.84115849087906" /><tripinfo id="baseline_38" depart="532.7114522066706" waitingTime="11.967379475635582" duration="81.96737947563558" routeLength="1033.34" timeLoss="21.54128305614405" /><tripinfo id="baseline_39" depart="449.81062195115095" waitingTime="11.43303621289327" duration="81.43303621289327" routeLength="1033.34" timeLoss="20.579465183207887" /><tripinfo id="baseline_40" depart="496.61919110906894" waitingTime="18.559176032127926" duration="88.55917603212792" routeLength="1033.34" timeLoss="33.40651685783027" /><tripinfo id="baseline_41" depart="630.9188848375297" waitingTime="16.334294211796095" duration="86.33429421179609" routeLength="1033.34" timeLoss="29.40172958123297" /><tripinfo id="baseline_42" depart="676.9443464483792" waitingTime="18.7497870732234" duration="88.7497870732234" routeLength="1033.34" timeLoss="33.74961673180212" /><tripinfo id="baseline_43" depart="490.17851309075286" waitingTime="16.83410866655192" duration="86.83410866655191" routeLength="1033.34" timeLoss="30.301395599793455" /><tripinfo id="baseline_44" depart="17.39814504460968" waitingTime="18.85903739507096" duration="88.85903739507096" routeLength="1033.34" timeLoss="33.94626731112773" /><tripinfo id="baseline_45" depart="747.877068129989" waitingTime="14.02597123895964" duration="84.02597123895964" routeLength="1033.34" timeLoss="25.246748230127352" /><tripinfo id="baseline_46" depart="373.847851144021" waitingTime="15.762420685913913" duration="85.76242068591391" routeLength="1033.34" timeLoss="28.372357234645044" /><tripinfo id="baseline_47" depart="772.4351362520697" waitingTime="10.915338029646065" duration="80.91533802964607" routeLength="1033.34" timeLoss="19.647608453362917" /><tripinfo id="baseline_48" depart="23.024078754692923" waitingTime="18.171022223175882" duration="88.17102222317588" routeLength="1033.34" timeLoss="32.70784000171659" /><tripinfo id="baseline_49" depart="99.33306937432995" waitingTime="11.396233908155102" duration="81.3962339081551" routeLength="1033.34" timeLoss="20.513221034679184" /><tripinfo id="baseline_50" depart="677.6995242937693" waitingTime="14.061137587919731" duration="84.06113758791973" routeLength="1033.34" timeLoss="25.310047658255517" /><tripinfo id="baseline_51" depart="88.5067522437013" waitingTime="17.851134998129176" duration="87.85113499812917" routeLength="1033.34" timeLoss="32.13204299663252" /><tripinfo id="baseline_52" depart="160.39225980147833" waitingTime="16.974178059678206" duration="86.97417805967821" routeLength="1033.34" timeLoss="30.55352050742077" /><tripinfo id="baseline_53" depart="589.4928140733188" waitingTime="18.453226223456795" duration="88.4532262234568" routeLength="1033.34" timeLoss="33.21580720222223" /><tripinfo id="baseline_54" depart="198.22337864636896" waitingTime="16.11856774010836" duration="86.11856774010836" routeLength="1033.34" timeLoss="29.01342193219505" /><tripinfo id="baseline_55" depart="734.3773959309478" waitingTime="12.665073883193056" duration="82.66507388319306" routeLength="1033.34" timeLoss="22.797132989747503" /><tripinfo id="baseline_56" depart="739.0933542621452" waitingTime="13.645876016263822" duration="83.64587601626383" routeLength="1033.34" timeLoss="24.562576829274878" /><tripinfo id="baseline_57" depart="315.459972035354" waitingTime="14.38417030464411" duration="84.38417030464412" routeLength="1033.34" timeLoss="25.8915065483594" /></tripinfos>