<?xml version='1.0' encoding='UTF-8'?>
<tripinfos><tripinfo id="baseline_0" depart="295.64440452880865" waitingTime="16.96903729812996" duration="86.96903729812996" routeLength="1033.34" timeLoss="30.54426713663393" /><tripinfo id="baseline_1" depart="522.0636818479012" waitingTime="29.11980817109248" duration="99.11980817109247" routeLength="1033.34" timeLoss="52.41565470796647" /><tripinfo id="baseline_2" depart="77.78877575501272" waitingTime="22.51856384131518" duration="92.51856384131518" routeLength="1033.34" timeLoss="40.53341491436733" /><tripinfo id="baseline_3" depart="637.5792613788461" waitingTime="16.59659102367676" duration="86.59659102367675" routeLength="1033.34" timeLoss="29.873863842618167" /><tripinfo id="baseline_4" depart="40.22243936926877" waitingTime="27.09681198464409" duration="97.09681198464409" routeLength="1033.34" timeLoss="48.774261572359364" /><tripinfo id="baseline_5" depart="159.6970787574624" waitingTime="20.358594466371194" duration="90.35859446637119" routeLength="1033.34" timeLoss="36.64547003946815" /><tripinfo id="baseline_6" depart="658.4065865234045" waitingTime="20.40718636967917" duration="90.40718636967917" routeLength="1033.34" timeLoss="36.73293546542251" /><tripinfo id="baseline_7" depart="259.5735584224799" waitingTime="17.786257014231943" duration="87.78625701423195" routeLength="1033.34" timeLoss="32.015262625617495" /><tripinfo id="baseline_8" depart="241.12034213661948" waitingTime="20.696592663656652" duration="90.69659266365665" routeLength="1033.34" timeLoss="37.253866794581974" /><tripinfo id="baseline_9" depart="259.288701617005" waitingTime="22.645623056709063" duration="92.64562305670907" routeLength="1033.34" timeLoss="40.76212150207631" /><tripinfo id="baseline_10" depart="76.14136512252773" waitingTime="26.594631080536082" duration="96.59463108053609" routeLength="1033.34" timeLoss="47.87033594496495" /><tripinfo id="baseline_11" depart="731.397610944934" waitingTime="16.104455230262612" duration="86.10445523026262" routeLength="1033.34" timeLoss="28.988019414472703" /><tripinfo id="baseline_12" depart="561.7667307044322" waitingTime="29.168106403700005" duration="99.16810640370001" routeLength="1033.34" timeLoss="52.50259152666001" /><tripinfo id="baseline_13" depart="727.7263175564754" waitingTime="24.17519838778183" duration="94.17519838778183" routeLength="1033.34" timeLoss="43.51535709800729" /><tripinfo id="baseline_14" depart="539.5813983021284" waitingTime="21.13169851221364" duration="91.13169851221363" routeLength="1033.34" timeLoss="38.03705732198455" /><tripinfo id="baseline_15" depart="51.14764784919874" waitingTime="21.17446558355359" duration="91.1744655835536" routeLength="1033.34" timeLoss="38.114038050396466" /><tripinfo id="baseline_16" depart="556.680428376968" waitingTime="18.523746574896414" duration="88.52374657489642" routeLength="1033.34" timeLoss="33.34274383481355" /><tripinfo id="baseline_17" depart="152.09573414369385" waitingTime="19.058641647072537" duration="89.05864164707253" routeLength="1033.34" timeLoss="34.30555496473057" /><tripinfo id="baseline_18" depart="676.448730900085" waitingTime="23.770131949732036" duration="93.77013194973203" routeLength="1033.34" timeLoss="42.78623750951767" /><tripinfo id="baseline_19" depart="764.7528729506114" waitingTime="27.160233066999098" duration="97.1602330669991" routeLength="1033.34" timeLoss="48.888419520598376" /><tripinfo id="baseline_20" depart="275.4938775803328" waitingTime="28.960221893621032" duration="98.96022189362102" routeLength="1033.34" timeLoss="52.12839940851786" /><tripinfo id="baseline_21" depart="1.5879719235905476" waitingTime="21.938818574129634" duration="91.93881857412964" routeLength="1033.34" timeLoss="39.489873433433345" /><tripinfo id="baseline_22" depart="495.22808242871247" waitingTime="26.196700967464725" duration="96.19670096746472" routeLength="1033.34" timeLoss="47.15406174143651" /><tripinfo id="baseline_23" depart="75.39845415262434" waitingTime="20.008519434989946" duration="90.00851943498995" routeLength="1033.34" timeLoss="36.015334982981905" /><tripinfo id="baseline_24" depart="204.53191663636002" waitingTime="21.356917574933547" duration="91.35691757493355" routeLength="1033.34" timeLoss="38.442451634880385" /><tripinfo id="baseline_25" depart="534.0319674411516" waitingTime="26.554161220025378" duration="96.55416122002538" routeLength="1033.34" timeLoss="47.79749019604568" /><tripinfo id="baseline_26" depart="47.87948824511705" waitingTime="24.259993602426114" duration="94.2599936024261" routeLength="1033.34" timeLoss="43.66798848436701" /><tripinfo id="baseline_27" depart="585.7635806032657" waitingTime="24.361413490726097" duration="94.3614134907261" routeLength="1033.34" timeLoss="43.850544283306974" /><tripinfo id="baseline_28" depart="604.9320313283937" waitingTime="19.328129940171312" duration="89.32812994017131" routeLength="1033.34" timeLoss="34.790633892308364" /><tripinfo id="baseline_29" depart="765.622445076434" waitingTime="23.748199875823904" duration="93.7481998758239" routeLength="1033.34" timeLoss="42.746759776483024" /><tripinfo id="baseline_30" depart="461.7977413527335" waitingTime="24.031937600573087" duration="94.03193760057309" routeLength="1033.34" timeLoss="43.257487681031556" /><tripinfo id="baseline_31" depart="237.82018431788242" waitingTime="24.10871782206642" duration="94.10871782206642" routeLength="1033.34" timeLoss="43.39569207971956" /><tripinfo id="baseline_32" depart="249.59255548011444" waitingTime="25.039504599231552" duration="95.03950459923155" routeLength="1033.34" timeLoss="45.0711082786168" /><tripinfo id="baseline_33" depart="475.0046370160261" waitingTime="25.195595395668633" duration="95.19559539566863" routeLength="1033.34" timeLoss="45.35207171220354" /><tripinfo id="baseline_34" depart="68.61341985799339" waitingTime="16.38767521161624" duration="86.38767521161624" routeLength="1033.34" timeLoss="29.497815380909234" /><tripinfo id="baseline_35" depart="406.5168477982433" waitingTime="25.269179435890834" duration="95.26917943589083" routeLength="1033.34" timeLoss="45.4845229846035" /><tripinfo id="baseline_36" depart="757.2554221456812" waitingTime="26.655939096397493" duration="96.65593909639749" routeLength="1033.34" timeLoss="47.980690373515486" /><tripinfo id="baseline_37" depart="169.08103258071847" waitingTime="26.193048594731618" duration="96.19304859473162" routeLength="1033.34" timeLoss="47.147487470516914" /><tripinfo id="baseline_38" depart="401.42847066420836" waitingTime="21.718310958223377" duration="91.71831095822338" routeLength="1033.34" timeLoss="39.09295972480208" /><tripinfo id="baseline_39" depart="302.6824927632072" waitingTime="19.149588580703806" duration="89.1495885807038" routeLength="1033.34" timeLoss="34.46925944526685" /><tripinfo id="baseline_40" depart="702.6628238969902" waitingTime="17.02183245826665" duration="87.02183245826666" routeLength="1033.34" timeLoss="30.63929842487997" /><tripinfo id="baseline_41" depart="234.88850885232918" waitingTime="16.41526535562834" duration="86.41526535562834" routeLength="1033.34" timeLoss="29.54747764013101" /><tripinfo id="baseline_42" depart="735.3400890442624" waitingTime="21.306342497517093" duration="91.3063424975171" routeLength="1033.34" timeLoss="38.35141649553077" /><tripinfo id="baseline_43" depart="761.2747937900078" waitingTime="15.75955658891537" duration="85.75955658891537" routeLength="1033.34" timeLoss="28.367201860047665" /><tripinfo id="baseline_44" depart="780.586172127797" waitingTime="25.706262604381276" duration="95.70626260438128" routeLength="1033.34" timeLoss="46.271272687886295" /><tripinfo id="baseline_45" depart="548.6660223094207" waitingTime="18.329824013685577" duration="88.32982401368558" routeLength="1033.34" timeLoss="32.99368322463404" /><tripinfo id="baseline_46" depart="41.347579687632404" waitingTime="22.21171769797661" duration="92.21171769797661" routeLength="1033.34" timeLoss="39.9810918563579" /><tripinfo id="baseline_47" depart="519.6795277836634" waitingTime="28.10745571240523" duration="98.10745571240523" routeLength="1033.34" timeLoss="50.59342028232941" /><tripinfo id="baseline_48" depart="34.79829158373376" waitingTime="23.68532582346857" duration="93.68532582346857" routeLength="1033.34" timeLoss="42.63358648224343" /><tripinfo id="baseline_49" depart="220.97643377747005" waitingTime="28.146205075453725" duration="98.14620507545372" routeLength="1033.34" timeLoss="50.66316913581671" /><tripinfo id="baseline_50" depart="36.65619029306475" waitingTime="26.074250284047988" duration="96.07425028404799" routeLength="1033.34" timeLoss="46.93365051128638" /><tripinfo id="baseline_51" depart="594.2158774310396" waitingTime="15.796039114614793" duration="85.79603911461479" routeLength="1033.34" timeLoss="28.432870406306627" /><tripinfo id="baseline_52" depart="144.97154415714286" waitingTime="28.460530150560924" duration="98.46053015056093" routeLength="1033.34" timeLoss="51.22895427100966" /><tripinfo id="baseline_53" depart="151.8796452784393" waitingTime="26.556922571980003" duration="96.55692257198001" routeLength="1033.34" timeLoss="47.80246062956401" /><tripinfo id="baseline_54" depart="766.0090764719885" waitingTime="23.07625109971817" duration="93.07625109971818" routeLength="1033.34" timeLoss="41.53725197949271" /><tripinfo id="baseline_55" depart="552.5059457978283" waitingTime="28.643458770913085" duration="98.64345877091309" routeLength="1033.34" timeLoss="51.55822578764356" /><tripinfo id="baseline_56" depart="795.6445653347122" waitingTime="21.904033723800204" duration="91.90403372380021" routeLength="1033.34" timeLoss="39.42726070284037" /><tripinfo id="baseline_57" depart="351.506315652753" waitingTime="19.84419581366849" duration="89.84419581366849" routeLength="1033.34" timeLoss="35.71955246460329" /></tripinfos>