<?xml version='1.0' encoding='UTF-8'?>
<tripinfos><tripinfo id="baseline_0" depart="299.89125867026854" waitingTime="17.236442756002763" duration="87.23644275600276" routeLength="1033.34" timeLoss="31.025596960804975" /><tripinfo id="baseline_1" depart="181.53885430569946" waitingTime="17.230481204954323" duration="87.23048120495432" routeLength="1033.34" timeLoss="31.01486616891778" /><tripinfo id="baseline_2" depart="277.99754886870585" waitingTime="22.931053972237624" duration="92.93105397223762" routeLength="1033.34" timeLoss="41.275897150027724" /><tripinfo id="baseline_3" depart="443.1636661554966" waitingTime="20.73745388149077" duration="90.73745388149077" routeLength="1033.34" timeLoss="37.32741698668338" /><tripinfo id="baseline_4" depart="261.03556088174827" waitingTime="27.07422578809658" duration="97.07422578809658" routeLength="1033.34" timeLoss="48.73360641857384" /><tripinfo id="baseline_5" depart="450.0244732552563" waitingTime="21.07173070206615" duration="91.07173070206615" routeLength="1033.34" timeLoss="37.929115263719076" /><tripinfo id="baseline_6" depart="12.74166909870571" waitingTime="24.094442262386504" duration="94.09444226238651" routeLength="1033.34" timeLoss="43.369996072295706" /><tripinfo id="baseline_7" depart="457.0846894927707" waitingTime="19.402574551492012" duration="89.40257455149201" routeLength="1033.34" timeLoss="34.92463419268562" /><tripinfo id="baseline_8" depart="781.1542535738754" waitingTime="22.94619653507321" duration="92.94619653507321" routeLength="1033.34" timeLoss="41.303153763131775" /><tripinfo id="baseline_9" depart="594.7335144282125" waitingTime="26.121398904197086" duration="96.1213989041971" routeLength="1033.34" timeLoss="47.018518027554755" /><tripinfo id="baseline_10" depart="630.2304124403782" waitingTime="16.007132236271516" duration="86.00713223627152" routeLength="1033.34" timeLoss="28.81283802528873" /><tripinfo id="baseline_11" depart="294.5819579132354" waitingTime="16.277149624990617" duration="86.27714962499061" routeLength="1033.34" timeLoss="29.298869324983112" /><tripinfo id="baseline_12" depart="156.12747031832237" waitingTime="28.137553299630575" duration="98.13755329963058" routeLength="1033.34" timeLoss="50.647595939335034" /><tripinfo id="baseline_13" depart="109.26531846411338" waitingTime="23.283387002880552" duration="93.28338700288054" routeLength="1033.34" timeLoss="41.910096605185" /><tripinfo id="baseline_14" depart="489.29606730613216" waitingTime="22.945807960067174" duration="92.94580796006717" routeLength="1033.34" timeLoss="41.302454328120916" /><tripinfo id="baseline_15" depart="15.714618655510204" waitingTime="16.44398403260654" duration="86.44398403260654" routeLength="1033.34" timeLoss="29.599171258691772" /><tripinfo id="baseline_16" depart="474.2459444585298" waitingTime="17.803203633219358" duration="87.80320363321935" routeLength="1033.34" timeLoss="32.04576653979485" /><tripinfo id="baseline_17" depart="221.20206489951136" waitingTime="18.487826628346493" duration="88.4878266283465" routeLength="1033.34" timeLoss="33.27808793102369" /><tripinfo id="baseline_18" depart="508.53113452246316" waitingTime="28.46926761282572" duration="98.46926761282572" routeLength="1033.34" timeLoss="51.2446817030863" /><tripinfo id="baseline_19" depart="255.16137650818652" waitingTime="22.19081100732916" duration="92.19081100732916" routeLength="1033.34" timeLoss="39.94345981319249" /><tripinfo id="baseline_20" depart="353.0127153161034" waitingTime="28.598413559091924" duration="98.59841355909192" routeLength="1033.34" timeLoss="51.47714440636546" /><tripinfo id="baseline_21" depart="748.0252760325623" waitingTime="17.694061184172664" duration="87.69406118417267" routeLength="1033.34" timeLoss="31.849310131510798" /><tripinfo id="baseline_22" depart="208.08250661239816" waitingTime="21.95888314941397" duration="91.95888314941396" routeLength="1033.34" timeLoss="39.52598966894515" /><tripinfo id="baseline_23" depart="656.7103857231235" waitingTime="24.878978938683826" duration="94.87897893868383" routeLength="1033.34" timeLoss="44.78216208963089" /><tripinfo id="baseline_24" depart="147.48967528243986" waitingTime="18.767599833208255" duration="88.76759983320825" routeLength="1033.34" timeLoss="33.78167969977486" /><tripinfo id="baseline_25" depart="322.868306831195" waitingTime="23.70165005664598" duration="93.70165005664597" routeLength="1033.34" timeLoss="42.66297010196277" /><tripinfo id="baseline_26" depart="744.8174135417793" waitingTime="25.15869890630706" duration="95.15869890630705" routeLength="1033.34" timeLoss="45.28565803135271" /><tripinfo id="baseline_27" depart="589.7558870675147" waitingTime="19.94125028764798" duration="89.94125028764797" routeLength="1033.34" timeLoss="35.89425051776636" /><tripinfo id="baseline_28" depart="287.3800789494272" waitingTime="26.189724738879498" duration="96.1897247388795" routeLength="1033.34" timeLoss="47.141504529983095" /><tripinfo id="baseline_29" depart="55.48674980596715" waitingTime="18.05553457796729" duration="88.0555345779673" routeLength="1033.34" timeLoss="32.49996224034112" /><tripinfo id="baseline_30" depart="394.12663099342933" waitingTime="16.6773296605486" duration="86.6773296605486" routeLength="1033.34" timeLoss="30.019193388987482" /><tripinfo id="baseline_31" depart="400.12413109503757" waitingTime="18.668682697507084" duration="88.66868269750708" routeLength="1033.34" timeLoss="33.60362885551275" /><tripinfo id="baseline_32" depart="225.95905658568122" waitingTime="23.05596937646166" duration="93.05596937646166" routeLength="1033.34" timeLoss="41.50074487763099" /><tripinfo id="baseline_33" depart="384.1312865913952" waitingTime="18.769277023978805" duration="88.7692770239788" routeLength="1033.34" timeLoss="33.78469864316185" /><tripinfo id="baseline_34" depart="258.0599611421075" waitingTime="28.196357754755745" duration="98.19635775475575" routeLength="1033.34" timeLoss="50.75344395856034" /><tripinfo id="baseline_35" depart="49.51922652988783" waitingTime="25.33584996616697" duration="95.33584996616696" routeLength="1033.34" timeLoss="45.604529939100544" /><tripinfo id="baseline_36" depart="675.9306938753887" waitingTime="19.074655103663464" duration="89.07465510366346" routeLength="1033.34" timeLoss="34.334379186594234" /><tripinfo id="baseline_37" depart="770.4869308061616" waitingTime="20.050961612148402" duration="90.0509616121484" routeLength="1033.34" timeLoss="36.09173090186712" /><tripinfo id="baseline_38" depart="658.9089801131679" waitingTime="20.23597739397857" duration="90.23597739397857" routeLength="1033.34" timeLoss="36.42475930916142" /><tripinfo id="baseline_39" depart="116.06953092473562" waitingTime="17.732317069174563" duration="87.73231706917457" routeLength="1033.34" timeLoss="31.918170724514216" /><tripinfo id="baseline_40" depart="757.5466444688211" waitingTime="23.234378236888563" duration="93.23437823688856" routeLength="1033.34" timeLoss="41.821880826399415" /><tripinfo id="baseline_41" depart="342.63026583700696" waitingTime="21.832364469751305" duration="91.8323644697513" routeLength="1033.34" timeLoss="39.29825604555235" /><tripinfo id="baseline_42" depart="363.0736514490347" waitingTime="27.14152393943091" duration="97.14152393943091" routeLength="1033.34" timeLoss="48.85474309097564" /><tripinfo id="baseline_43" depart="415.9674049450241" waitingTime="16.142656554697094" duration="86.1426565546971" routeLength="1033.34" timeLoss="29.05678179845477" /><tripinfo id="baseline_44" depart="238.16300486689883" waitingTime="26.72321892912818" duration="96.72321892912818" routeLength="1033.34" timeLoss="48.10179407243073" /><tripinfo id="baseline_45" depart="323.2619164291389" waitingTime="21.719085236048578" duration="91.71908523604858" routeLength="1033.34" timeLoss="39.094353424887444" /><tripinfo id="baseline_46" depart="642.3617296061" waitingTime="22.869523992484982" duration="92.86952399248499" routeLength="1033.34" timeLoss="41.16514318647297" /><tripinfo id="baseline_47" depart="220.81843203175958" waitingTime="28.04973846675792" duration="98.04973846675792" routeLength="1033.34" timeLoss="50.48952924016425" /><tripinfo id="baseline_48" depart="731.5339335420275" waitingTime="24.95896369744087" duration="94.95896369744086" routeLength="1033.34" timeLoss="44.92613465539356" /><tripinfo id="baseline_49" depart="272.64166607782" waitingTime="25.583472469135284" duration="95.58347246913529" routeLength="1033.34" timeLoss="46.05025044444351" /><tripinfo id="baseline_50" depart="355.47688172320215" waitingTime="17.962909037394944" duration="87.96290903739495" routeLength="1033.34" timeLoss="32.3332362673109" /><tripinfo id="baseline_51" depart="247.91815148420716" waitingTime="18.914817704689113" duration="88.91481770468911" routeLength="1033.34" timeLoss="34.046671868440406" /><tripinfo id="baseline_52" depart="457.2451818007817" waitingTime="20.281028058019054" duration="90.28102805801905" routeLength="1033.34" timeLoss="36.5058505044343" /><tripinfo id="baseline_53" depart="483.9394634550454" waitingTime="27.992637129866562" duration="97.99263712986657" routeLength="1033.34" timeLoss="50.386746833759815" /><tripinfo id="baseline_54" depart="678.4638808870895" waitingTime="24.932097937852593" duration="94.93209793785259" routeLength="1033.34" timeLoss="44.87777628813467" /><tripinfo id="baseline_55" depart="582.8272801334924" waitingTime="26.091460233799467" duration="96.09146023379947" routeLength="1033.34" timeLoss="46.96462842083904" /><tripinfo id="baseline_56" depart="729.629732094551" waitingTime="26.562285025582494" duration="96.5622850255825" routeLength="1033.34" timeLoss="47.81211304604849" /><tripinfo id="baseline_57" depart="387.8931563133038" waitingTime="20.81964047564315" duration="90.81964047564315" routeLength="1033.34" timeLoss="37.47535285615767" /></tripinfos>