<?xml version='1.0' encoding='UTF-8'?>
<tripinfos><tripinfo id="baseline_0" depart="10.899497754664722" waitingTime="22.884140200345378" duration="92.88414020034537" routeLength="1033.34" timeLoss="41.19145236062168" /><tripinfo id="baseline_1" depart="113.0009798402611" waitingTime="21.21403036468874" duration="91.21403036468874" routeLength="1033.34" timeLoss="38.18525465643973" /><tripinfo id="baseline_2" depart="139.65791668071432" waitingTime="27.79795191312278" duration="97.79795191312277" routeLength="1033.34" timeLoss="50.036313443621005" /><tripinfo id="baseline_3" depart="348.21619976304606" waitingTime="34.715489478804216" duration="104.71548947880422" routeLength="1033.34" timeLoss="62.48788106184759" /><tripinfo id="baseline_4" depart="659.0106221311112" waitingTime="22.227337137056125" duration="92.22733713705613" routeLength="1033.34" timeLoss="40.00920684670103" /><tripinfo id="baseline_5" depart="353.7980997436927" waitingTime="36.46173404073142" duration="106.46173404073141" routeLength="1033.34" timeLoss="65.63112127331657" /><tripinfo id="baseline_6" depart="479.25411085876794" waitingTime="36.19331950089751" duration="106.1933195008975" routeLength="1033.34" timeLoss="65.14797510161551" /><tripinfo id="baseline_7" depart="152.7851577059777" waitingTime="25.198061054543185" duration="95.19806105454319" routeLength="1033.34" timeLoss="45.356509898177734" /><tripinfo id="baseline_8" depart="90.71779844698452" waitingTime="22.335160035350288" duration="92.33516003535028" routeLength="1033.34" timeLoss="40.20328806363052" /><tripinfo id="baseline_9" depart="458.48408760588546" waitingTime="34.231642526050756" duration="104.23164252605076" routeLength="1033.34" timeLoss="61.61695654689136" /><tripinfo id="baseline_10" depart="733.3967529435818" waitingTime="38.00434576745254" duration="108.00434576745255" routeLength="1033.34" timeLoss="68.40782238141458" /><tripinfo id="baseline_11" depart="315.1412876373831" waitingTime="25.772922885846597" duration="95.7729228858466" routeLength="1033.34" timeLoss="46.39126119452388" /><tripinfo id="baseline_12" depart="749.2083311700796" waitingTime="34.689230799437205" duration="104.68923079943721" routeLength="1033.34" timeLoss="62.44061543898697" /><tripinfo id="baseline_13" depart="535.8699192491704" waitingTime="24.951992425868653" duration="94.95199242586865" routeLength="1033.34" timeLoss="44.91358636656358" /><tripinfo id="baseline_14" depart="544.7537442012803" waitingTime="27.937281883975583" duration="97.93728188397559" routeLength="1033.34" timeLoss="50.28710739115605" /><tripinfo id="baseline_15" depart="463.78839150222797" waitingTime="32.88910814582541" duration="102.88910814582542" routeLength="1033.34" timeLoss="59.20039466248574" /><tripinfo id="baseline_16" depart="558.8872954370784" waitingTime="34.75154535917031" duration="104.75154535917031" routeLength="1033.34" timeLoss="62.55278164650655" /><tripinfo id="baseline_17" depart="647.3374329219444" waitingTime="29.043019140189653" duration="99.04301914018966" routeLength="1033.34" timeLoss="52.277434452341375" /><tripinfo id="baseline_18" depart="567.6352522124952" waitingTime="24.968658508767426" duration="94.96865850876742" routeLength="1033.34" timeLoss="44.94358531578137" /><tripinfo id="baseline_19" depart="457.575061285846" waitingTime="38.04095358479239" duration="108.04095358479239" routeLength="1033.34" timeLoss="68.4737164526263" /><tripinfo id="baseline_20" depart="223.82461140555003" waitingTime="38.8593634283887" duration="108.85936342838869" routeLength="1033.34" timeLoss="69.94685417109966" /><tripinfo id="baseline_21" depart="29.023367342424677" waitingTime="29.943153532932254" duration="99.94315353293226" routeLength="1033.34" timeLoss="53.89767635927806" /><tripinfo id="baseline_22" depart="223.35250519791927" waitingTime="32.65232222198243" duration="102.65232222198243" routeLength="1033.34" timeLoss="58.774179999568375" /><tripinfo id="baseline_23" depart="457.54943548312053" waitingTime="25.97236795738815" duration="95.97236795738814" routeLength="1033.34" timeLoss="46.75026232329867" /><tripinfo id="baseline_24" depart="786.0112543868695" waitingTime="21.23721954928962" duration="91.23721954928962" routeLength="1033.34" timeLoss="38.22699518872132" /><tripinfo id="baseline_25" depart="131.45626866678964" waitingTime="36.167323570245316" duration="106.16732357024532" routeLength="1033.34" timeLoss="65.10118242644157" /><tripinfo id="baseline_26" depart="444.4322176931157" waitingTime="32.485931681808275" duration="102.48593168180827" routeLength="1033.34" timeLoss="58.4746770272549" /><tripinfo id="baseline_27" depart="658.5550673040904" waitingTime="27.514612450689224" duration="97.51461245068923" routeLength="1033.34" timeLoss="49.52630241124061" /><tripinfo id="baseline_28" depart="482.4140124761404" waitingTime="24.568176281614118" duration="94.56817628161411" routeLength="1033.34" timeLoss="44.222717306905416" /><tripinfo id="baseline_29" depart="23.728061511113197" waitingTime="30.443957723277993" duration="100.44395772327799" routeLength="1033.34" timeLoss="54.79912390190039" /><tripinfo id="baseline_30" depart="78.4458483936116" waitingTime="34.40215134628009" duration="104.40215134628009" routeLength="1033.34" timeLoss="61.92387242330417" /><tripinfo id="baseline_31" depart="174.2599203528372" waitingTime="25.982192369784066" duration="95.98219236978406" routeLength="1033.34" timeLoss="46.76794626561132" /><tripinfo id="baseline_32" depart="146.18308017368787" waitingTime="36.2310145993131" duration="106.2310145993131" routeLength="1033.34" timeLoss="65.21582627876359" /><tripinfo id="baseline_33" depart="536.5438896406057" waitingTime="32.252504473232115" duration="102.25250447323211" routeLength="1033.34" timeLoss="58.054508051817805" /><tripinfo id="baseline_34" depart="58.42587349567516" waitingTime="32.47754998621693" duration="102.47754998621693" routeLength="1033.34" timeLoss="58.459589975190475" /><tripinfo id="baseline_35" depart="288.29157205783014" waitingTime="30.12297175429072" duration="100.12297175429072" routeLength="1033.34" timeLoss="54.221349157723296" /><tripinfo id="baseline_36" depart="328.71810690672925" waitingTime="32.2833362323682" duration="102.2833362323682" routeLength="1033.34" timeLoss="58.11000521826276" /><tripinfo id="baseline_37" depart="96.11697228318157" waitingTime="21.378406034501072" duration="91.37840603450107" routeLength="1033.34" timeLoss="38.48113086210193" /><tripinfo id="baseline_38" depart="672.519271732597" waitingTime="31.482388598058108" duration="101.48238859805811" routeLength="1033.34" timeLoss="56.66829947650459" /><tripinfo id="baseline_39" depart="772.519474970065" waitingTime="26.80805156552092" duration="96.80805156552091" routeLength="1033.34" timeLoss="48.25449281793766" /><tripinfo id="baseline_40" depart="332.81578849005757" waitingTime="25.727968710299322" duration="95.72796871029932" routeLength="1033.34" timeLoss="46.31034367853878" /><tripinfo id="baseline_41" depart="47.94803624894275" waitingTime="30.453059867739817" duration="100.45305986773982" routeLength="1033.34" timeLoss="54.81550776193167" /><tripinfo id="baseline_42" depart="276.15181654875494" waitingTime="30.796212341120274" duration="100.79621234112028" routeLength="1033.34" timeLoss="55.4331822140165" /><tripinfo id="baseline_43" depart="458.21066980946864" waitingTime="24.14925865347906" duration="94.14925865347905" routeLength="1033.34" timeLoss="43.46866557626231" /><tripinfo id="baseline_44" depart="19.97389297663128" waitingTime="37.52431211273655" duration="107.52431211273655" routeLength="1033.34" timeLoss="67.5437618029258" /><tripinfo id="baseline_45" depart="78.39111325951365" waitingTime="28.00349114654265" duration="98.00349114654264" routeLength="1033.34" timeLoss="50.40628406377677" /><tripinfo id="baseline_46" depart="432.772538802386" waitingTime="26.574945994388756" duration="96.57494599438876" routeLength="1033.34" timeLoss="47.834902789899765" /><tripinfo id="baseline_47" depart="571.0480826769538" waitingTime="30.131861617263944" duration="100.13186161726395" routeLength="1033.34" timeLoss="54.2373509110751" /><tripinfo id="baseline_48" depart="734.128886182285" waitingTime="25.996517614482347" duration="95.99651761448234" routeLength="1033.34" timeLoss="46.79373170606822" /><tripinfo id="baseline_49" depart="333.14297180714743" waitingTime="32.77388188712405" duration="102.77388188712405" routeLength="1033.34" timeLoss="58.99298739682329" /><tripinfo id="baseline_50" depart="12.8762203404027" waitingTime="26.937009226923863" duration="96.93700922692386" routeLength="1033.34" timeLoss="48.48661660846295" /><tripinfo id="baseline_51" depart="653.6000036538256" waitingTime="35.31467219218209" duration="105.31467219218209" routeLength="1033.34" timeLoss="63.56640994592776" /><tripinfo id="baseline_52" depart="488.5387949319816" waitingTime="26.63150403756368" duration="96.63150403756367" routeLength="1033.34" timeLoss="47.93670726761462" /><tripinfo id="baseline_53" depart="512.869695719248" waitingTime="33.34584663962045" duration="103.34584663962045" routeLength="1033.34" timeLoss="60.022523951316806" /><tripinfo id="baseline_54" depart="405.87712459118643" waitingTime="30.224186269460972" duration="100.22418626946097" routeLength="1033.34" timeLoss="54.403535285029754" /><tripinfo id="baseline_55" depart="551.3011015207909" waitingTime="26.497004813885336" duration="96.49700481388534" routeLength="1033.34" timeLoss="47.69460866499361" /><tripinfo id="baseline_56" depart="663.7770379767873" waitingTime="33.363880017973194" duration="103.3638800179732" routeLength="1033.34" timeLoss="60.054984032351754" /><tripinfo id="baseline_57" depart="187.58259705833592" waitingTime="35.824859384440266" duration="105.82485938444026" routeLength="1033.34" timeLoss="64.48474689199249" /></tripinfos>