<?xml version='1.0' encoding='UTF-8'?>
<tripinfos><tripinfo id="baseline_0" depart="146.09081421891838" waitingTime="6.473344359336459" duration="76.47334435933647" routeLength="1033.34" timeLoss="11.652019846805628" /><tripinfo id="baseline_1" depart="613.4746025904426" waitingTime="6.874412241461716" duration="76.87441224146171" routeLength="1033.34" timeLoss="12.373942034631089" /><tripinfo id="baseline_2" depart="411.11388501282084" waitingTime="7.000641142927256" duration="77.00064114292725" routeLength="1033.34" timeLoss="12.60115405726906" /><tripinfo id="baseline_3" depart="478.72475293990544" waitingTime="8.008794003896545" duration="78.00879400389654" routeLength="1033.34" timeLoss="14.415829207013783" /><tripinfo id="baseline_4" depart="569.2518935207295" waitingTime="7.310298287776062" duration="77.31029828777606" routeLength="1033.34" timeLoss="13.158536917996912" /><tripinfo id="baseline_5" depart="458.75955501723615" waitingTime="6.879153856958477" duration="76.87915385695848" routeLength="1033.34" timeLoss="12.382476942525258" /><tripinfo id="baseline_6" depart="778.9595540911934" waitingTime="8.609964016936942" duration="78.60996401693694" routeLength="1033.34" timeLoss="15.497935230486496" /><tripinfo id="baseline_7" depart="569.4581354329583" waitingTime="6.70733910039039" duration="76.70733910039039" routeLength="1033.34" timeLoss="12.073210380702703" /><tripinfo id="baseline_8" depart="552.303182176416" waitingTime="8.742494567517493" duration="78.7424945675175" routeLength="1033.34" timeLoss="15.736490221531488" /><tripinfo id="baseline_9" depart="194.64389063259793" waitingTime="6.222592669480242" duration="76.22259266948024" routeLength="1033.34" timeLoss="11.200666805064435" /><tripinfo id="baseline_10" depart="498.61273968227124" waitingTime="9.686645632661495" duration="79.6866456326615" routeLength="1033.34" timeLoss="17.435962138790693" /><tripinfo id="baseline_11" depart="627.0997423116336" waitingTime="6.556626503575036" duration="76.55662650357503" routeLength="1033.34" timeLoss="11.801927706435066" /><tripinfo id="baseline_12" depart="768.7251668210538" waitingTime="5.475209065641988" duration="75.47520906564199" routeLength="1033.34" timeLoss="9.85537631815558" /><tripinfo id="baseline_13" depart="598.4220398175138" waitingTime="5.710282024055112" duration="75.71028202405512" routeLength="1033.34" timeLoss="10.278507643299202" /><tripinfo id="baseline_14" depart="516.7525915998636" waitingTime="6.627316938193706" duration="76.6273169381937" routeLength="1033.34" timeLoss="11.929170488748671" /><tripinfo id="baseline_15" depart="539.3804429294601" waitingTime="6.0733797904378415" duration="76.07337979043784" routeLength="1033.34" timeLoss="10.932083622788115" /><tripinfo id="baseline_16" depart="611.0874523491549" waitingTime="8.566948450188931" duration="78.56694845018893" routeLength="1033.34" timeLoss="15.420507210340077" /><tripinfo id="baseline_17" depart="20.472467240398196" waitingTime="8.733889100176926" duration="78.73388910017692" routeLength="1033.34" timeLoss="15.721000380318467" /><tripinfo id="baseline_18" depart="671.4531397321049" waitingTime="8.602982674028215" duration="78.60298267402821" routeLength="1033.34" timeLoss="15.485368813250789" /><tripinfo id="baseline_19" depart="591.5274406848342" waitingTime="7.60081880697716" duration="77.60081880697716" routeLength="1033.34" timeLoss="13.681473852558888" /><tripinfo id="baseline_20" depart="312.7128343040919" waitingTime="6.226358150279424" duration="76.22635815027942" routeLength="1033.34" timeLoss="11.207444670502964" /><tripinfo id="baseline_21" depart="259.4030140010721" waitingTime="9.004704705989482" duration="79.00470470598948" routeLength="1033.34" timeLoss="16.208468470781067" /><tripinfo id="baseline_22" depart="610.4491533298228" waitingTime="8.050444340763356" duration="78.05044434076336" routeLength="1033.34" timeLoss="14.490799813374041" /><tripinfo id="baseline_23" depart="277.1891622621592" waitingTime="6.257665793947339" duration="76.25766579394734" routeLength="1033.34" timeLoss="11.263798429105211" /><tripinfo id="baseline_24" depart="170.96654643686176" waitingTime="8.333573131912003" duration="78.333573131912" routeLength="1033.34" timeLoss="15.000431637441604" /><tripinfo id="baseline_25" depart="595.5113057293011" waitingTime="5.6728753268976515" duration="75.67287532689765" routeLength="1033.34" timeLoss="10.211175588415774" /><tripinfo id="baseline_26" depart="739.5011721415129" waitingTime="5.431425820839985" duration="75.43142582083999" routeLength="1033.34" timeLoss="9.776566477511974" /><tripinfo id="baseline_27" depart="9.63495709240032" waitingTime="8.769844587948864" duration="78.76984458794887" routeLength="1033.34" timeLoss="15.785720258307956" /><tripinfo id="baseline_28" depart="242.60067460417173" waitingTime="7.5013989254456135" duration="77.50139892544561" routeLength="1033.34" timeLoss="13.502518065802105" /><tripinfo id="baseline_29" depart="702.7588507243009" waitingTime="5.348241239588543" duration="75.34824123958855" routeLength="1033.34" timeLoss="9.626834231259377" /><tripinfo id="baseline_30" depart="466.26884296159295" waitingTime="6.5939283395689765" duration="76.59392833956898" routeLength="1033.34" timeLoss="11.869071011224158" /><tripinfo id="baseline_31" depart="252.18277841249045" waitingTime="9.542158172345982" duration="79.54215817234598" routeLength="1033.34" timeLoss="17.175884710222768" /><tripinfo id="baseline_32" depart="319.6099899436032" waitingTime="7.075598475111434" duration="77.07559847511143" routeLength="1033.34" timeLoss="12.736077255200582" /><tripinfo id="baseline_33" depart="38.42185444015192" waitingTime="8.689664872424203" duration="78.6896648724242" routeLength="1033.34" timeLoss="15.641396770363565" /><tripinfo id="baseline_34" depart="160.89556543870404" waitingTime="9.109441325870009" duration="79.10944132587001" routeLength="1033.34" timeLoss="16.396994386566018" /><tripinfo id="baseline_35" depart="127.29452156075087" waitingTime="8.881488750823817" duration="78.88148875082382" routeLength="1033.34" timeLoss="15.98667975148287" /><tripinfo id="baseline_36" depart="558.5459099464763" waitingTime="8.222734734323305" duration="78.22273473432331" routeLength="1033.34" timeLoss="14.80092252178195" /><tripinfo id="baseline_37" depart="548.1348420529811" waitingTime="7.793725215671731" duration="77.79372521567173" routeLength="1033.34" timeLoss="14.028705388209117" /><tripinfo id="baseline_38" depart="450.2128872004644" waitingTime="5.949871187010738" duration="75.94987118701074" routeLength="1033.34" timeLoss="10.70976813661933" /><tripinfo id="baseline_39" depart="468.1158205827816" waitingTime="8.190944070935085" duration="78.19094407093509" routeLength="1033.34" timeLoss="14.743699327683155" /><tripinfo id="baseline_40" depart="693.0817093622597" waitingTime="8.367366889446185" duration="78.36736688944619" routeLength="1033.34" timeLoss="15.061260401003134" /><tripinfo id="baseline_41" depart="512.480368338229" waitingTime="8.713672170074073" duration="78.71367217007408" routeLength="1033.34" timeLoss="15.684609906133332" /><tripinfo id="baseline_42" depart="147.31755411480378" waitingTime="8.203484259491278" duration="78.20348425949128" routeLength="1033.34" timeLoss="14.7662716670843" /><tripinfo id="baseline_43" depart="321.427731003101" waitingTime="6.110351678474741" duration="76.11035167847474" routeLength="1033.34" timeLoss="10.998633021254534" /><tripinfo id="baseline_44" depart="777.3535465632709" waitingTime="5.933546578085638" duration="75.93354657808564" routeLength="1033.34" timeLoss="10.680383840554148" /><tripinfo id="baseline_45" depart="441.7410159797255" waitingTime="6.677814916616825" duration="76.67781491661682" routeLength="1033.34" timeLoss="12.020066849910284" /><tripinfo id="baseline_46" depart="368.1824175907789" waitingTime="8.161475984674102" duration="78.1614759846741" routeLength="1033.34" timeLoss="14.690656772413384" /><tripinfo id="baseline_47" depart="666.341983485807" waitingTime="7.969083153078013" duration="77.96908315307802" routeLength="1033.34" timeLoss="14.344349675540423" /><tripinfo id="baseline_48" depart="321.8737802195002" waitingTime="5.507910636395831" duration="75.50791063639583" routeLength="1033.34" timeLoss="9.914239145512497" /><tripinfo id="baseline_49" depart="118.75769481161117" waitingTime="6.658365834914611" duration="76.6583658349146" routeLength="1033.34" timeLoss="11.9850585028463" /><tripinfo id="baseline_50" depart="532.9986709893803" waitingTime="8.892987777002825" duration="78.89298777700283" routeLength="1033.34" timeLoss="16.007377998605083" /><tripinfo id="baseline_51" depart="795.9710376172959" waitingTime="5.399335500214882" duration="75.39933550021487" routeLength="1033.34" timeLoss="9.718803900386787" /><tripinfo id="baseline_52" depart="792.513727159812" waitingTime="9.280107087101173" duration="79.28010708710117" routeLength="1033.34" timeLoss="16.704192756782113" /><tripinfo id="baseline_53" depart="497.94168147881834" waitingTime="8.334400077358852" duration="78.33440007735885" routeLength="1033.34" timeLoss="15.001920139245934" /><tripinfo id="baseline_54" depart="292.63856926732" waitingTime="6.257104622006744" duration="76.25710462200675" routeLength="1033.34" timeLoss="11.26278831961214" /><tripinfo id="baseline_55" depart="687.6728765758374" waitingTime="9.547767270649429" duration="79.54776727064943" routeLength="1033.34" timeLoss="17.185981087168972" /><tripinfo id="baseline_56" depart="670.4550210889813" waitingTime="6.786230178573035" duration="76.78623017857304" routeLength="1033.34" timeLoss="12.215214321431464" /><tripinfo id="baseline_57" depart="658.4947339146016" waitingTime="9.088327644733717" duration="79.08832764473371" routeLength="1033.34" timeLoss="16.35898976052069" /></tripinfos>