<?xml version='1.0' encoding='UTF-8'?>
<tripinfos><tripinfo id="baseline_0" depart="19.287728319679776" waitingTime="24.4299486290232" duration="94.4299486290232" routeLength="1033.34" timeLoss="43.97390753224176" /><tripinfo id="baseline_1" depart="340.0728839102816" waitingTime="31.4828626718732" duration="101.48286267187319" routeLength="1033.34" timeLoss="56.66915280937176" /><tripinfo id="baseline_2" depart="723.6226260448727" waitingTime="32.75433234827942" duration="102.75433234827942" routeLength="1033.34" timeLoss="58.95779822690296" /><tripinfo id="baseline_3" depart="349.7333603465928" waitingTime="36.68842342351678" duration="106.68842342351678" routeLength="1033.34" timeLoss="66.03916216233021" /><tripinfo id="baseline_4" depart="498.47614019975765" waitingTime="33.10517207126273" duration="103.10517207126273" routeLength="1033.34" timeLoss="59.589309728272916" /><tripinfo id="baseline_5" depart="192.9299052341582" waitingTime="21.360527698570323" duration="91.36052769857032" routeLength="1033.34" timeLoss="38.448949857426584" /><tripinfo id="baseline_6" depart="223.96489532103575" waitingTime="25.61334549363059" duration="95.61334549363059" routeLength="1033.34" timeLoss="46.104021888535065" /><tripinfo id="baseline_7" depart="529.6166401943847" waitingTime="29.691394450676555" duration="99.69139445067655" routeLength="1033.34" timeLoss="53.4445100112178" /><tripinfo id="baseline_8" depart="479.95639634570557" waitingTime="36.25458023554342" duration="106.25458023554341" routeLength="1033.34" timeLoss="65.25824442397816" /><tripinfo id="baseline_9" depart="505.2295186775252" waitingTime="32.62448386301624" duration="102.62448386301624" routeLength="1033.34" timeLoss="58.72407095342923" /><tripinfo id="baseline_10" depart="539.5140285470948" waitingTime="26.171043420940443" duration="96.17104342094044" routeLength="1033.34" timeLoss="47.107878157692795" /><tripinfo id="baseline_11" depart="241.61684136017837" waitingTime="31.042324729732776" duration="101.04232472973277" routeLength="1033.34" timeLoss="55.876184513519" /><tripinfo id="baseline_12" depart="603.8795811823924" waitingTime="32.06803329159064" duration="102.06803329159064" routeLength="1033.34" timeLoss="57.72245992486315" /><tripinfo id="baseline_13" depart="10.874999827897458" waitingTime="25.77796192795902" duration="95.77796192795901" routeLength="1033.34" timeLoss="46.400331470326236" /><tripinfo id="baseline_14" depart="373.5483704608395" waitingTime="21.84400320002086" duration="91.84400320002086" routeLength="1033.34" timeLoss="39.31920576003755" /><tripinfo id="baseline_15" depart="636.2813440150882" waitingTime="37.205125868073715" duration="107.20512586807371" routeLength="1033.34" timeLoss="66.96922656253268" /><tripinfo id="baseline_16" depart="680.8018934744038" waitingTime="34.9026651806424" duration="104.9026651806424" routeLength="1033.34" timeLoss="62.824797325156325" /><tripinfo id="baseline_17" depart="89.69683197850378" waitingTime="37.98910661734438" duration="107.98910661734439" routeLength="1033.34" timeLoss="68.38039191121989" /><tripinfo id="baseline_18" depart="190.33019679992762" waitingTime="27.549551273637956" duration="97.54955127363796" routeLength="1033.34" timeLoss="49.58919229254832" /><tripinfo id="baseline_19" depart="60.270393779894334" waitingTime="29.248494800506066" duration="99.24849480050607" routeLength="1033.34" timeLoss="52.64729064091092" /><tripinfo id="baseline_20" depart="718.3848051010107" waitingTime="25.580258747071372" duration="95.58025874707137" routeLength="1033.34" timeLoss="46.04446574472847" /><tripinfo id="baseline_21" depart="568.7641097712363" waitingTime="24.499855921750797" duration="94.4998559217508" routeLength="1033.34" timeLoss="44.099740659151436" /><tripinfo id="baseline_22" depart="250.1078163068267" waitingTime="25.46085226217583" duration="95.46085226217583" routeLength="1033.34" timeLoss="45.8295340719165" /><tripinfo id="baseline_23" depart="636.3198743154366" waitingTime="31.602595399465756" duration="101.60259539946576" routeLength="1033.34" timeLoss="56.88467171903836" /><tripinfo id="baseline_24" depart="136.80395906287802" waitingTime="25.535046709947117" duration="95.53504670994712" routeLength="1033.34" timeLoss="45.96308407790481" /><tripinfo id="baseline_25" depart="786.3117511117482" waitingTime="36.775750093297304" duration="106.7757500932973" routeLength="1033.34" timeLoss="66.19635016793515" /><tripinfo id="baseline_26" depart="407.1833289443816" waitingTime="33.497197632643" duration="103.49719763264301" routeLength="1033.34" timeLoss="60.2949557387574" /><tripinfo id="baseline_27" depart="781.6507748341875" waitingTime="25.730566355147797" duration="95.7305663551478" routeLength="1033.34" timeLoss="46.31501943926604" /><tripinfo id="baseline_28" depart="637.3197130056308" waitingTime="36.64360146446629" duration="106.64360146446629" routeLength="1033.34" timeLoss="65.95848263603934" /><tripinfo id="baseline_29" depart="414.3241463538939" waitingTime="32.797773024255946" duration="102.79777302425595" routeLength="1033.34" timeLoss="59.035991443660706" /><tripinfo id="baseline_30" depart="340.4105362050359" waitingTime="33.235624421459164" duration="103.23562442145916" routeLength="1033.34" timeLoss="59.824123958626494" /><tripinfo id="baseline_31" depart="793.4407774106072" waitingTime="34.2649578263319" duration="104.26495782633191" routeLength="1033.34" timeLoss="61.676924087397424" /><tripinfo id="baseline_32" depart="312.1535676250577" waitingTime="27.13933960982282" duration="97.13933960982283" routeLength="1033.34" timeLoss="48.850811297681076" /><tripinfo id="baseline_33" depart="783.9941236441778" waitingTime="35.071109339069714" duration="105.07110933906972" routeLength="1033.34" timeLoss="63.127996810325484" /><tripinfo id="baseline_34" depart="710.9199941266237" waitingTime="27.32159062289576" duration="97.32159062289576" routeLength="1033.34" timeLoss="49.178863121212366" /><tripinfo id="baseline_35" depart="389.09100967792824" waitingTime="22.030396460823603" duration="92.0303964608236" routeLength="1033.34" timeLoss="39.65471362948249" /><tripinfo id="baseline_36" depart="354.4802756187986" waitingTime="27.86045280289145" duration="97.86045280289144" routeLength="1033.34" timeLoss="50.148815045204614" /><tripinfo id="baseline_37" depart="136.72750562634047" waitingTime="24.975975913574292" duration="94.97597591357429" routeLength="1033.34" timeLoss="44.956756644433725" /><tripinfo id="baseline_38" depart="63.52517051873052" waitingTime="28.283792034099147" duration="98.28379203409915" routeLength="1033.34" timeLoss="50.91082566137847" /><tripinfo id="baseline_39" depart="188.32293660828796" waitingTime="37.14052179251989" duration="107.14052179251989" routeLength="1033.34" timeLoss="66.85293922653581" /><tripinfo id="baseline_40" depart="446.34580988444696" waitingTime="32.72256843620299" duration="102.72256843620299" routeLength="1033.34" timeLoss="58.90062318516539" /><tripinfo id="baseline_41" depart="404.1877431285621" waitingTime="21.400561026917416" duration="91.40056102691742" routeLength="1033.34" timeLoss="38.52100984845135" /><tripinfo id="baseline_42" depart="418.3723956126137" waitingTime="30.644976496404432" duration="100.64497649640444" routeLength="1033.34" timeLoss="55.160957693527976" /><tripinfo id="baseline_43" depart="733.8872129809388" waitingTime="27.942153594157524" duration="97.94215359415753" routeLength="1033.34" timeLoss="50.295876469483545" /><tripinfo id="baseline_44" depart="115.184676748133" waitingTime="26.549882938994397" duration="96.5498829389944" routeLength="1033.34" timeLoss="47.789789290189916" /><tripinfo id="baseline_45" depart="288.95928101700025" waitingTime="33.534470983597934" duration="103.53447098359794" routeLength="1033.34" timeLoss="60.36204777047628" /><tripinfo id="baseline_46" depart="118.08618873984128" waitingTime="34.98720509591734" duration="104.98720509591735" routeLength="1033.34" timeLoss="62.97696917265121" /><tripinfo id="baseline_47" depart="283.0291983946266" waitingTime="37.63628836802198" duration="107.63628836802198" routeLength="1033.34" timeLoss="67.74531906243956" /><tripinfo id="baseline_48" depart="354.2058736374182" waitingTime="28.14777894014002" duration="98.14777894014003" routeLength="1033.34" timeLoss="50.66600209225204" /><tripinfo id="baseline_49" depart="66.50579048988376" waitingTime="22.764991385351117" duration="92.76499138535112" routeLength="1033.34" timeLoss="40.97698449363201" /><tripinfo id="baseline_50" depart="439.9559377831208" waitingTime="34.52563237013285" duration="104.52563237013285" routeLength="1033.34" timeLoss="62.14613826623913" /><tripinfo id="baseline_51" depart="209.97568228858913" waitingTime="23.777192362360122" duration="93.77719236236013" routeLength="1033.34" timeLoss="42.79894625224822" /><tripinfo id="baseline_52" depart="182.89564622431573" waitingTime="26.179050295590713" duration="96.17905029559071" routeLength="1033.34" timeLoss="47.12229053206328" /><tripinfo id="baseline_53" depart="642.9416262597306" waitingTime="37.96708619368849" duration="107.96708619368849" routeLength="1033.34" timeLoss="68.34075514863927" /><tripinfo id="baseline_54" depart="678.6108051300944" waitingTime="38.331590977079635" duration="108.33159097707963" routeLength="1033.34" timeLoss="68.99686375874334" /><tripinfo id="baseline_55" depart="49.070332479529185" waitingTime="35.34915578337852" duration="105.34915578337852" routeLength="1033.34" timeLoss="63.62848041008134" /><tripinfo id="baseline_56" depart="226.11559298598348" waitingTime="28.298772102069528" duration="98.29877210206953" routeLength="1033.34" timeLoss="50.93778978372515" /><tripinfo id="baseline_57" depart="223.51107230679867" waitingTime="26.325161912586832" duration="96.32516191258684" routeLength="1033.34" timeLoss="47.385291442656296" /></tripinfos>